 Entering Gaussian System, Link 0=g03
 Initial command:
 /opt/mackerell/apps/gaussian/g03/l1.exe /tmp/fylin/gauss31407/Gau-31410.inp -scrdir=/tmp/fylin/gauss31407/
 Entering Link 1 = /opt/mackerell/apps/gaussian/g03/l1.exe PID=     31412.
  
 Copyright (c) 1988,1990,1992,1993,1995,1998,2003,2004, Gaussian, Inc.
                  All Rights Reserved.
  
 This is the Gaussian(R) 03 program.  It is based on the
 the Gaussian(R) 98 system (copyright 1998, Gaussian, Inc.),
 the Gaussian(R) 94 system (copyright 1995, Gaussian, Inc.),
 the Gaussian 92(TM) system (copyright 1992, Gaussian, Inc.),
 the Gaussian 90(TM) system (copyright 1990, Gaussian, Inc.),
 the Gaussian 88(TM) system (copyright 1988, Gaussian, Inc.),
 the Gaussian 86(TM) system (copyright 1986, Carnegie Mellon
 University), and the Gaussian 82(TM) system (copyright 1983,
 Carnegie Mellon University). Gaussian is a federally registered
 trademark of Gaussian, Inc.
  
 This software contains proprietary and confidential information,
 including trade secrets, belonging to Gaussian, Inc.
  
 This software is provided under written license and may be
 used, copied, transmitted, or stored only in accord with that
 written license.
  
 The following legend is applicable only to US Government
 contracts under FAR:
  
                    RESTRICTED RIGHTS LEGEND
  
 Use, reproduction and disclosure by the US Government is
 subject to restrictions as set forth in subparagraphs (a)
 and (c) of the Commercial Computer Software - Restricted
 Rights clause in FAR 52.227-19.
  
 Gaussian, Inc.
 340 Quinnipiac St., Bldg. 40, Wallingford CT 06492
  
  
 ---------------------------------------------------------------
 Warning -- This program may not be used in any manner that
 competes with the business of Gaussian, Inc. or will provide
 assistance to any competitor of Gaussian, Inc.  The licensee
 of this program is prohibited from giving any competitor of
 Gaussian, Inc. access to this program.  By using this program,
 the user acknowledges that Gaussian, Inc. is engaged in the
 business of creating and licensing software in the field of
 computational chemistry and represents and warrants to the
 licensee that it is not a competitor of Gaussian, Inc. and that
 it will not use this program in any manner prohibited above.
 ---------------------------------------------------------------
  

 Cite this work as:
 Gaussian 03, Revision D.02,
 M. J. Frisch, G. W. Trucks, H. B. Schlegel, G. E. Scuseria, 
 M. A. Robb, J. R. Cheeseman, J. A. Montgomery, Jr., T. Vreven, 
 K. N. Kudin, J. C. Burant, J. M. Millam, S. S. Iyengar, J. Tomasi, 
 V. Barone, B. Mennucci, M. Cossi, G. Scalmani, N. Rega, 
 G. A. Petersson, H. Nakatsuji, M. Hada, M. Ehara, K. Toyota, 
 R. Fukuda, J. Hasegawa, M. Ishida, T. Nakajima, Y. Honda, O. Kitao, 
 H. Nakai, M. Klene, X. Li, J. E. Knox, H. P. Hratchian, J. B. Cross, 
 V. Bakken, C. Adamo, J. Jaramillo, R. Gomperts, R. E. Stratmann, 
 O. Yazyev, A. J. Austin, R. Cammi, C. Pomelli, J. W. Ochterski, 
 P. Y. Ayala, K. Morokuma, G. A. Voth, P. Salvador, J. J. Dannenberg, 
 V. G. Zakrzewski, S. Dapprich, A. D. Daniels, M. C. Strain, 
 O. Farkas, D. K. Malick, A. D. Rabuck, K. Raghavachari, 
 J. B. Foresman, J. V. Ortiz, Q. Cui, A. G. Baboul, S. Clifford, 
 J. Cioslowski, B. B. Stefanov, G. Liu, A. Liashenko, P. Piskorz, 
 I. Komaromi, R. L. Martin, D. J. Fox, T. Keith, M. A. Al-Laham, 
 C. Y. Peng, A. Nanayakkara, M. Challacombe, P. M. W. Gill, 
 B. Johnson, W. Chen, M. W. Wong, C. Gonzalez, and J. A. Pople, 
 Gaussian, Inc., Wallingford CT, 2004.
 
 ******************************************
 Gaussian 03:  AM64L-G03RevD.02  1-Mar-2006
                13-Apr-2016 
 ******************************************
 %mem=16MW
 ---------------------
 #MP2/aug-cc-pVDZ scan
 ---------------------
 1/38=1,60=1/1,8;
 2/17=6,18=5,29=3,40=1/2;
 3/5=16,7=10,11=9,16=1,25=1,30=1/1,2,3;
 4//1;
 5/5=2,38=5/2;
 8/10=1/1;
 9/16=-3/6;
 6/7=2,8=2,9=2,10=2,18=1/1;
 1/60=1/8(1);
 99/9=1/99;
 2/29=3/2;
 3/5=16,7=10,11=9,16=1,25=1,30=1/1,2,3;
 4/5=5,16=3/1;
 5/5=2,38=5/2;
 8/10=1/1;
 9/16=-3/6;
 1/60=1/8(-6);
 99/9=1/99;
 ---------------------------------------
 C1H...OHH 90.0 degrees, mp2/aug-cc-pVDZ
 ---------------------------------------
 Symbolic Z-matrix:
 Charge =  0 Multiplicity = 1
 C1                    0.17303  -1.22654   0. 
 H1                   -0.38701  -2.16486   0. 
 C2                    1.58008  -1.2172    0. 
 H2                    2.12248  -2.16724   0. 
 C3                    2.28666   0.        0. 
 H3                    3.38009   0.        0. 
 C4                    1.58008   1.2172    0. 
 H4                    2.12248   2.16724   0. 
 C5                    0.17303   1.22654   0. 
 H5                   -0.38701   2.16486   0. 
 C6                   -0.51255   0.        0. 
 CL6                  -2.26665   0.        0. 
 x                    CL6   1.       C6    90.      C5    0.       0
 o1w                  CL6  roh      x     90.      C6    180.     0
 h1w                  o1w   0.9572   CL6   127.74   x     180.     0
 h2w                  o1w   0.9572   CL6   127.74   x     0.       0
       Variables:
  roh                   2.5    Scan 25    0.1    
 
 Scan the potential surface.
 Variable   Value     No. Steps Step-Size
 -------- ----------- --------- ---------
     1       2.500000      25      0.1000
 A total of     26 points will be computed.
 ------------------------------------------------------------------------
                         Z-MATRIX (ANGSTROMS AND DEGREES)
 CD Cent Atom  N1     Length/X     N2    Alpha/Y     N3     Beta/Z      J
 ------------------------------------------------------------------------
   1   1  C     0   0.173030         -1.226543          0.000000
   2   2  H     0  -0.387009         -2.164857          0.000000
   3   3  C     0   1.580080         -1.217204          0.000000
   4   4  H     0   2.122475         -2.167243          0.000000
   5   5  C     0   2.286660          0.000000          0.000000
   6   6  H     0   3.380093          0.000000          0.000000
   7   7  C     0   1.580080          1.217204          0.000000
   8   8  H     0   2.122476          2.167243          0.000000
   9   9  C     0   0.173029          1.226543          0.000000
  10  10  H     0  -0.387010          2.164857          0.000000
  11  11  C     0  -0.512547          0.000000          0.000000
  12  12  Cl    0  -2.266648          0.000000          0.000000
  13      X    12   1.000000( 12)  11   90.000( 26)   9    0.000( 39)   0
  14  13  O    12   2.500000( 13)  13   90.000( 27)  11  180.000( 40)   0
  15  14  H    14   0.957200( 14)  12  127.740( 28)  13  180.000( 41)   0
  16  15  H    14   0.957200( 15)  12  127.740( 29)  13    0.000( 42)   0
 ------------------------------------------------------------------------
                         Z-Matrix orientation:                         
 ---------------------------------------------------------------------
 Center     Atomic     Atomic              Coordinates (Angstroms)
 Number     Number      Type              X           Y           Z
 ---------------------------------------------------------------------
    1          6             0        0.173030   -1.226543    0.000000
    2          1             0       -0.387009   -2.164857    0.000000
    3          6             0        1.580080   -1.217204    0.000000
    4          1             0        2.122475   -2.167243    0.000000
    5          6             0        2.286660    0.000000    0.000000
    6          1             0        3.380093    0.000000    0.000000
    7          6             0        1.580080    1.217204    0.000000
    8          1             0        2.122476    2.167243    0.000000
    9          6             0        0.173029    1.226543    0.000000
   10          1             0       -0.387010    2.164857    0.000000
   11          6             0       -0.512547    0.000000    0.000000
   12         17             0       -2.266648    0.000000    0.000000
   13         -1             0       -2.266648    1.000000    0.000000
   14          8             0       -4.766648    0.000000    0.000000
   15          1             0       -5.352530   -0.756950    0.000000
   16          1             0       -5.352530    0.756950    0.000000
 ---------------------------------------------------------------------
                    Distance matrix (angstroms):
                    1          2          3          4          5
     1  C    0.000000
     2  H    1.092738   0.000000
     3  C    1.407081   2.183457   0.000000
     4  H    2.164544   2.509485   1.093968   0.000000
     5  C    2.443735   3.440220   1.407423   2.173453   0.000000
     6  H    3.433608   4.344843   2.172932   2.505703   1.093433
     7  C    2.819874   3.912515   2.434408   3.427634   1.407423
     8  H    3.913837   5.006456   3.427634   4.334486   2.173453
     9  C    2.453086   3.437330   2.819874   3.913837   2.443736
    10  H    3.437330   4.329714   3.912516   5.006456   3.440221
    11  C    1.405142   2.168494   2.420883   3.411786   2.799207
    12  Cl   2.730648   2.866993   4.034712   4.895032   4.553308
    13  X    3.302957   3.680946   4.439967   5.412562   4.661825
    14  O    5.089678   4.885473   6.462394   7.221977   7.053308
    15  H    5.545479   5.161260   6.947872   7.606880   7.676601
    16  H    5.870780   5.761368   7.208215   8.026619   7.676601
                    6          7          8          9         10
     6  H    0.000000
     7  C    2.172932   0.000000
     8  H    2.505702   1.093969   0.000000
     9  C    3.433608   1.407082   2.164546   0.000000
    10  H    4.344844   2.183458   2.509487   1.092738   0.000000
    11  C    3.892640   2.420883   3.411787   1.405141   2.168494
    12  Cl   5.646741   4.034712   4.895033   2.730647   2.866992
    13  X    5.734604   3.852855   4.541681   2.450173   2.211319
    14  O    8.146741   6.462394   7.221978   5.089677   4.885472
    15  H    8.765368   7.208215   8.026620   5.870779   5.761367
    16  H    8.765368   6.947872   7.606881   5.545478   5.161259
                   11         12         13         14         15
    11  C    0.000000
    12  Cl   1.754101   0.000000
    13  X    2.019126   1.000000   0.000000
    14  O    4.254101   2.500000   2.692582   0.000000
    15  H    4.898817   3.177364   3.550992   0.957200   0.000000
    16  H    4.898817   3.177364   3.095439   0.957200   1.513901
                   16
    16  H    0.000000
                           Interatomic angles:
       H2-C1-C3=121.2114       H2-C1-H4= 95.0716       C1-C3-H4=119.3426
       H2-C3-H4= 94.0002       H2-C1-C5=150.9578       C1-C3-C5=120.5152
       H2-C3-C5=145.8575       C1-H4-C5= 68.5728       H2-H4-C5= 94.2778
       H4-C3-C5=120.1422       C1-C3-H6=146.313        H2-C3-H6=171.6553
       C1-H4-H6= 94.3664       H2-H4-H6=120.0715       H4-C3-H6= 94.3445
       C1-C5-H6=149.8733       C3-C5-H6=120.1349       H4-C5-H6= 94.3323
       H2-C1-C7=179.1011       C1-C3-C7= 90.3803       H2-C3-C7=115.7226
       H4-C1-C7= 85.8272       H4-C3-C7=150.2771       C1-C5-C7= 89.9917
       C3-C5-C7=119.7302       H4-C5-C7=145.5328       C1-C7-H6= 85.865 
       C3-H6-C7= 68.1347       H4-H6-C7= 93.9414       H6-C5-C7=120.1349
       C1-C5-H8=115.7944       C3-C5-H8=145.5328       H4-C5-H8=171.3354
       C3-H6-H8= 93.9414       H4-H6-H8=119.7481       H6-C5-H8= 94.3323
       C1-C7-H8=179.7906       C3-C7-H8=150.2771       C5-C7-H8=120.1422
       H6-C7-H8= 94.3444       H2-C1-C9=149.1688       C3-C1-C9= 89.6197
       H2-C3-C9= 85.7903       H4-C1-C9=115.7595       H4-C3-C9=179.7905
       C1-C5-C9= 60.2533       C3-C5-C9= 89.9917       H4-C5-C9=115.7943
       H6-C3-C9= 85.865        H6-C5-C9=149.8733       C1-C9-C7= 89.6197
       C3-C7-C9= 90.3803       C5-C7-C9=120.5152       H6-C7-C9=146.313 
       C1-C9-H8=115.7595       C3-C9-H8= 85.8272       C5-H8-C9= 68.5728
       H6-H8-C9= 94.3664       H8-C7-C9=119.3426      C1-C7-H10= 85.7903
      C3-C7-H10=115.7226      C5-C7-H10=145.8575      H6-C7-H10=171.6553
      C5-H8-H10= 94.2778      H6-H8-H10=120.0714      H8-C7-H10= 94.0003
      C1-C9-H10=149.1689      C3-C9-H10=179.1012      C5-C9-H10=150.9578
      C7-C9-H10=121.2114      H8-C9-H10= 95.0716      H2-C1-C11=119.9658
      C3-C1-C11=118.8228      C3-H2-C11= 67.5962      H4-C1-C11=144.9626
      H4-H2-C11= 93.3733      H4-C3-C11=149.9078      C5-C1-C11= 89.0764
      H2-C11-C5= 86.6812      C5-C3-C11= 89.9499      H4-C5-C11= 85.6677
      H6-C3-C11=115.7477      H6-C5-C11=180.          C1-C11-C7= 90.982 
      H2-C11-C7=116.8662      C3-C11-C7= 60.37        C5-C7-C11= 89.9499
      H6-C7-C11=115.7477      H8-C5-C11= 85.6677      H8-C7-C11=149.9079
      C1-C11-C9=121.594       H2-C11-C9=147.4782      C3-C11-C9= 90.982 
      C5-C9-C11= 89.0763      C7-C9-C11=118.8227      H8-C9-C11=144.9625
     C1-C11-H10=147.4782     H2-C11-H10=173.3624     C3-C11-H10=116.8662
     C5-C11-H10= 86.6812     C7-H10-C11= 67.5962     H8-H10-C11= 93.3733
     H10-C9-C11=119.9659     H2-C1-Cl12= 85.8597     C3-C1-Cl12=152.9288
     C3-H2-Cl12=105.2435     H4-C1-Cl12=179.0687     H4-H2-Cl12=131.0207
     C5-C1-Cl12=123.1825     C7-C1-Cl12= 93.2414     C1-C9-Cl12= 63.3091
     H2-Cl12-C9= 75.7247     C3-C9-Cl12= 93.2414     C5-C9-Cl12=123.1825
     C7-C9-Cl12=152.9288     H8-C9-Cl12=179.0686    C1-Cl12-H10= 75.7247
    H2-Cl12-H10= 98.0677    C7-H10-Cl12=105.2435    H8-H10-Cl12=131.0206
    H10-C9-Cl12= 85.8597    C1-C11-Cl12=119.203     H2-C11-Cl12= 93.3188
    C3-C11-Cl12=149.815     C5-C11-Cl12=180.        C7-C11-Cl12=149.815 
    C9-C11-Cl12=119.203    H10-C11-Cl12= 93.3188      C1-C9-X13= 84.6949
      C3-C9-X13=114.6272      C5-C9-X13=144.5682      C7-C9-X13=174.3146
      H8-C9-X13=159.5456     C7-H10-X13=122.4899     H8-H10-X13=148.267 
     C9-H10-X13= 89.0437     C1-C11-X13=148.8902     H2-C11-X13=123.006 
     C3-C11-X13=179.5022     C5-C11-X13=150.3129     C7-C11-X13=120.1279
     C9-C11-X13= 89.5159    H10-C11-X13= 63.6316    C1-Cl12-X13=116.6909
    H2-Cl12-X13=139.0338    C9-X13-Cl12= 95.3051   H10-X13-Cl12=121.7875
   C11-Cl12-X13= 90.        C1-Cl12-O14=153.3091    H2-Cl12-O14=130.9662
    C9-Cl12-O14=153.3091   H10-Cl12-O14=130.9662   C11-Cl12-O14=180.    
     C9-X13-O14=163.5037    H10-X13-O14=170.0139    C11-X13-O14=128.5114
   X13-Cl12-O14= 90.       Cl12-O14-H15=127.74      X13-O14-H15=149.5414
   Cl12-O14-H16=127.74      X13-O14-H16=105.9386    H15-O14-H16=104.52  
 Stoichiometry    C6H7ClO
 Framework group  CS[SG(C6H7ClO)]
 Deg. of freedom    27
 Full point group                 CS
 Largest Abelian subgroup         CS      NOp   2
 Largest concise Abelian subgroup C1      NOp   1
                         Standard orientation:                         
 ---------------------------------------------------------------------
 Center     Atomic     Atomic              Coordinates (Angstroms)
 Number     Number      Type              X           Y           Z
 ---------------------------------------------------------------------
    1          6             0        1.226543   -0.891239    0.000000
    2          1             0        2.164857   -0.331200    0.000000
    3          6             0        1.217204   -2.298289    0.000000
    4          1             0        2.167243   -2.840684    0.000000
    5          6             0        0.000000   -3.004869    0.000000
    6          1             0        0.000000   -4.098302    0.000000
    7          6             0       -1.217204   -2.298289    0.000000
    8          1             0       -2.167243   -2.840685    0.000000
    9          6             0       -1.226543   -0.891238    0.000000
   10          1             0       -2.164857   -0.331199    0.000000
   11          6             0        0.000000   -0.205662    0.000000
   12         17             0        0.000000    1.548439    0.000000
   13          8             0        0.000000    4.048439    0.000000
   14          1             0        0.756950    4.634321    0.000000
   15          1             0       -0.756950    4.634321    0.000000
 ---------------------------------------------------------------------
 Rotational constants (GHZ):      5.5092566      0.7461220      0.6571269
 Standard basis: Aug-CC-pVDZ (5D, 7F)
 There are   180 symmetry adapted basis functions of A'  symmetry.
 There are    71 symmetry adapted basis functions of A"  symmetry.
 Integral buffers will be    131072 words long.
 Raffenetti 1 integral format.
 Two-electron integral symmetry is turned on.
   251 basis functions,   461 primitive gaussians,   267 cartesian basis functions
    34 alpha electrons       34 beta electrons
       nuclear repulsion energy       394.3665854495 Hartrees.
 NAtoms=   15 NActive=   15 NUniq=   15 SFac= 7.50D-01 NAtFMM=   80 NAOKFM=F Big=F
 One-electron integrals computed using PRISM.
 NBasis=   251 RedAO= T  NBF=   180    71
 NBsUse=   251 1.00D-06 NBFU=   180    71
 Harris functional with IExCor=  205 diagonalized for initial guess.
 ExpMin= 2.97D-02 ExpMax= 1.28D+05 ExpMxC= 1.24D+03 IAcc=3 IRadAn=         5 AccDes= 0.00D+00
 HarFok:  IExCor= 205 AccDes= 0.00D+00 IRadAn=         5 IDoV=1
 ScaDFX=  1.000000  1.000000  1.000000  1.000000
 Initial guess orbital symmetries:
       Occupied  (A') (A') (A') (A') (A') (A') (A') (A') (A') (A')
                 (A') (A") (A') (A') (A') (A') (A') (A') (A') (A')
                 (A') (A') (A') (A') (A') (A') (A") (A') (A') (A")
                 (A") (A") (A') (A")
       Virtual   (A") (A") (A') (A') (A") (A') (A') (A') (A') (A')
                 (A') (A') (A") (A') (A") (A") (A') (A') (A') (A')
                 (A') (A') (A") (A') (A') (A') (A") (A') (A') (A")
                 (A') (A') (A') (A") (A') (A') (A') (A') (A') (A")
                 (A") (A') (A') (A') (A') (A') (A") (A') (A') (A')
                 (A') (A") (A') (A') (A') (A") (A') (A") (A') (A')
                 (A') (A') (A") (A") (A') (A') (A") (A") (A') (A")
                 (A') (A') (A') (A") (A') (A') (A') (A") (A') (A")
                 (A') (A') (A') (A') (A') (A") (A") (A') (A') (A')
                 (A') (A") (A') (A') (A') (A') (A') (A') (A") (A')
                 (A") (A') (A') (A') (A") (A') (A") (A") (A") (A')
                 (A') (A') (A") (A') (A") (A') (A") (A") (A') (A")
                 (A') (A") (A') (A") (A') (A') (A') (A') (A") (A")
                 (A') (A') (A") (A') (A") (A') (A') (A') (A") (A')
                 (A') (A") (A') (A') (A') (A') (A") (A") (A') (A')
                 (A') (A") (A') (A') (A") (A') (A') (A') (A') (A")
                 (A') (A') (A") (A') (A') (A') (A") (A') (A') (A')
                 (A") (A") (A") (A") (A') (A') (A") (A") (A') (A')
                 (A') (A") (A') (A') (A") (A') (A') (A') (A') (A')
                 (A") (A') (A") (A') (A') (A') (A') (A') (A') (A')
                 (A') (A') (A') (A') (A') (A') (A') (A') (A') (A')
                 (A") (A") (A') (A') (A') (A') (A')
 The electronic state of the initial guess is 1-A'.
 Requested convergence on RMS density matrix=1.00D-08 within 128 cycles.
 Requested convergence on MAX density matrix=1.00D-06.
 Requested convergence on             energy=1.00D-06.
 No special actions if energy rises.
 SCF Done:  E(RHF) =  -765.678849556     A.U. after   15 cycles
             Convg  =    0.4088D-08             -V/T =  2.0006
             S**2   =   0.0000
 ExpMin= 2.97D-02 ExpMax= 1.28D+05 ExpMxC= 1.24D+03 IAcc=3 IRadAn=         5 AccDes= 0.00D+00
 HarFok:  IExCor= 205 AccDes= 0.00D+00 IRadAn=         5 IDoV=1
 ScaDFX=  1.000000  1.000000  1.000000  1.000000
 Range of M.O.s used for correlation:    13   251
 NBasis=   251 NAE=    34 NBE=    34 NFC=    12 NFV=     0
 NROrb=    239 NOA=    22 NOB=    22 NVA=   217 NVB=   217

 **** Warning!!: The largest alpha MO coefficient is  0.13187977D+03

 Disk-based method using OVN memory for 22 occupieds at a time.
 Estimated scratch disk usage=   417753674 words.
 Actual    scratch disk usage=   413907530 words.
 JobTyp=1 Pass  1:  I=   1 to  22 NPSUse=  1 ParTrn=F ParDer=F DoDerP=F.
 Spin components of T(2) and E(2):
     alpha-alpha T2 =       0.6173845027D-01 E2=     -0.1580139857D+00
     alpha-beta  T2 =       0.3154888029D+00 E2=     -0.8686659981D+00
     beta-beta   T2 =       0.6173845027D-01 E2=     -0.1580139857D+00
 ANorm=    0.1199568966D+01
 E2 =    -0.1184693969D+01 EUMP2 =    -0.76686354352587D+03

 **********************************************************************

            Population analysis using the SCF density.

 **********************************************************************

 Orbital symmetries:
       Occupied  (A') (A') (A') (A') (A') (A') (A') (A') (A') (A')
                 (A') (A") (A') (A') (A') (A') (A') (A') (A') (A')
                 (A') (A') (A') (A') (A') (A') (A") (A") (A') (A')
                 (A") (A') (A") (A")
       Virtual   (A') (A') (A') (A') (A') (A') (A') (A") (A") (A')
                 (A") (A') (A') (A") (A') (A') (A") (A') (A') (A')
                 (A') (A') (A') (A") (A") (A") (A') (A') (A") (A')
                 (A') (A') (A") (A') (A') (A') (A') (A') (A') (A")
                 (A') (A') (A') (A') (A') (A") (A") (A') (A') (A')
                 (A') (A') (A") (A') (A') (A') (A") (A') (A") (A')
                 (A") (A") (A') (A') (A") (A') (A') (A') (A') (A')
                 (A") (A') (A") (A') (A') (A") (A') (A') (A') (A')
                 (A") (A') (A') (A') (A') (A') (A") (A') (A') (A")
                 (A') (A") (A') (A') (A') (A") (A') (A') (A') (A")
                 (A") (A') (A") (A') (A") (A") (A') (A') (A") (A")
                 (A') (A') (A') (A') (A") (A') (A") (A") (A') (A")
                 (A') (A') (A") (A") (A') (A') (A') (A') (A") (A")
                 (A') (A') (A") (A") (A') (A') (A') (A') (A') (A")
                 (A') (A') (A') (A") (A') (A') (A') (A') (A') (A")
                 (A") (A") (A') (A') (A") (A') (A') (A") (A') (A')
                 (A') (A") (A') (A') (A') (A") (A") (A') (A') (A')
                 (A') (A") (A") (A') (A") (A') (A") (A") (A') (A')
                 (A') (A") (A') (A') (A') (A") (A') (A') (A') (A')
                 (A') (A") (A") (A') (A') (A') (A') (A') (A') (A')
                 (A') (A') (A') (A') (A') (A') (A') (A') (A') (A')
                 (A") (A") (A') (A') (A') (A') (A')
 The electronic state is 1-A'.
 Alpha  occ. eigenvalues -- -104.81937 -20.57796 -11.29599 -11.25243 -11.25234
 Alpha  occ. eigenvalues --  -11.24962 -11.24961 -11.24715 -10.54482  -8.01248
 Alpha  occ. eigenvalues --   -8.00887  -8.00873  -1.36262  -1.17156  -1.10150
 Alpha  occ. eigenvalues --   -1.01876  -0.98285  -0.83297  -0.80727  -0.72373
 Alpha  occ. eigenvalues --   -0.69706  -0.64406  -0.63133  -0.61062  -0.59086
 Alpha  occ. eigenvalues --   -0.55396  -0.52710  -0.51365  -0.50505  -0.48640
 Alpha  occ. eigenvalues --   -0.44981  -0.43629  -0.33933  -0.32134
 Alpha virt. eigenvalues --    0.03211   0.03857   0.04339   0.05357   0.05524
 Alpha virt. eigenvalues --    0.07143   0.07481   0.10209   0.10305   0.11827
 Alpha virt. eigenvalues --    0.12534   0.13288   0.14323   0.14492   0.14974
 Alpha virt. eigenvalues --    0.15178   0.15423   0.16450   0.16771   0.16870
 Alpha virt. eigenvalues --    0.17928   0.18217   0.18379   0.18622   0.19846
 Alpha virt. eigenvalues --    0.20241   0.20503   0.20567   0.21742   0.23692
 Alpha virt. eigenvalues --    0.24662   0.24867   0.26484   0.28140   0.29171
 Alpha virt. eigenvalues --    0.29843   0.30958   0.30961   0.32628   0.33754
 Alpha virt. eigenvalues --    0.33824   0.34443   0.34773   0.35833   0.36237
 Alpha virt. eigenvalues --    0.37260   0.38365   0.38765   0.38813   0.40762
 Alpha virt. eigenvalues --    0.41174   0.42179   0.42449   0.44187   0.44325
 Alpha virt. eigenvalues --    0.44560   0.45129   0.47591   0.47955   0.48643
 Alpha virt. eigenvalues --    0.50522   0.51018   0.52301   0.53220   0.54289
 Alpha virt. eigenvalues --    0.56094   0.57471   0.58262   0.58286   0.59253
 Alpha virt. eigenvalues --    0.59279   0.59422   0.60662   0.62829   0.64790
 Alpha virt. eigenvalues --    0.65745   0.66515   0.66738   0.67601   0.68142
 Alpha virt. eigenvalues --    0.68629   0.68943   0.69352   0.70224   0.72516
 Alpha virt. eigenvalues --    0.72801   0.74177   0.75256   0.77083   0.77242
 Alpha virt. eigenvalues --    0.77282   0.77653   0.79504   0.84286   0.84634
 Alpha virt. eigenvalues --    0.85561   0.85870   0.86877   0.90162   0.91466
 Alpha virt. eigenvalues --    0.91937   0.93082   0.93609   0.93834   0.94302
 Alpha virt. eigenvalues --    0.94967   0.96562   0.97398   0.98582   0.99603
 Alpha virt. eigenvalues --    0.99955   1.01338   1.01589   1.04323   1.07206
 Alpha virt. eigenvalues --    1.10272   1.12752   1.14582   1.15502   1.16971
 Alpha virt. eigenvalues --    1.18268   1.20113   1.20769   1.25650   1.28968
 Alpha virt. eigenvalues --    1.29483   1.35634   1.38589   1.43170   1.44685
 Alpha virt. eigenvalues --    1.46282   1.46703   1.48741   1.49183   1.51081
 Alpha virt. eigenvalues --    1.52278   1.55612   1.55648   1.56017   1.56457
 Alpha virt. eigenvalues --    1.56698   1.61607   1.63007   1.63420   1.64136
 Alpha virt. eigenvalues --    1.64935   1.66854   1.67838   1.67983   1.70344
 Alpha virt. eigenvalues --    1.71267   1.71397   1.74789   1.76328   1.77294
 Alpha virt. eigenvalues --    1.77977   1.83030   1.88831   1.89436   1.90093
 Alpha virt. eigenvalues --    1.93816   1.94062   1.94696   1.96331   1.96857
 Alpha virt. eigenvalues --    2.02540   2.03645   2.03906   2.04467   2.07461
 Alpha virt. eigenvalues --    2.09739   2.10022   2.11076   2.11512   2.15486
 Alpha virt. eigenvalues --    2.16731   2.18769   2.20117   2.25222   2.25570
 Alpha virt. eigenvalues --    2.26805   2.28889   2.31547   2.32845   2.35321
 Alpha virt. eigenvalues --    2.35907   2.40047   2.40134   2.43160   2.51925
 Alpha virt. eigenvalues --    2.57290   2.59866   2.61000   2.66319   2.68913
 Alpha virt. eigenvalues --    2.76904   2.79073   2.79418   2.87485   2.92541
 Alpha virt. eigenvalues --    2.93896   2.94395   3.04229   3.07966   3.08712
 Alpha virt. eigenvalues --    3.16413   3.16906   3.31107   3.41193   3.56083
 Alpha virt. eigenvalues --    3.70057   3.72889   3.77881   3.84009   4.09014
 Alpha virt. eigenvalues --    4.35472   4.56520
          Condensed to atoms (all electrons):
              1          2          3          4          5          6
     1  C    9.066272  -0.564932  -1.800588   0.320717   1.655951  -0.152589
     2  H   -0.564932   1.640047   0.155232  -0.092272  -0.164865  -0.008401
     3  C   -1.800588   0.155232   8.105154  -0.454354  -1.758330   0.328562
     4  H    0.320717  -0.092272  -0.454354   1.602441   0.361249  -0.069332
     5  C    1.655951  -0.164865  -1.758330   0.361249   7.664520  -0.480919
     6  H   -0.152589  -0.008401   0.328562  -0.069332  -0.480919   1.602449
     7  C   -2.082160   0.101203   1.994807  -0.172055  -1.758326   0.328561
     8  H    0.114208   0.007745  -0.172054  -0.016618   0.361249  -0.069332
     9  C    0.681093   0.017219  -2.082161   0.114209   1.655950  -0.152589
    10  H    0.017219  -0.007313   0.101203   0.007745  -0.164865  -0.008401
    11  C   -1.558480   0.380511   1.039733  -0.183555  -1.698979   0.098938
    12  Cl  -0.037439  -0.088962  -0.106605   0.002330   0.146836   0.001464
    13  O   -0.005367  -0.002816   0.002547   0.000078   0.000353   0.000017
    14  H    0.001419   0.000064  -0.000609  -0.000012  -0.000013   0.000002
    15  H   -0.000892   0.000018   0.000438  -0.000002  -0.000013   0.000002
              7          8          9         10         11         12
     1  C   -2.082160   0.114208   0.681093   0.017219  -1.558480  -0.037439
     2  H    0.101203   0.007745   0.017219  -0.007313   0.380511  -0.088962
     3  C    1.994807  -0.172054  -2.082161   0.101203   1.039733  -0.106605
     4  H   -0.172055  -0.016618   0.114209   0.007745  -0.183555   0.002330
     5  C   -1.758326   0.361249   1.655950  -0.164865  -1.698979   0.146836
     6  H    0.328561  -0.069332  -0.152589  -0.008401   0.098938   0.001464
     7  C    8.105141  -0.454349  -1.800577   0.155230   1.039731  -0.106605
     8  H   -0.454349   1.602439   0.320713  -0.092271  -0.183555   0.002330
     9  C   -1.800577   0.320713   9.066268  -0.564930  -1.558480  -0.037440
    10  H    0.155230  -0.092271  -0.564930   1.640046   0.380511  -0.088962
    11  C    1.039731  -0.183555  -1.558480   0.380511   7.914810   0.136666
    12  Cl  -0.106605   0.002330  -0.037440  -0.088962   0.136666  17.687428
    13  O    0.002547   0.000078  -0.005367  -0.002816   0.018962  -0.171606
    14  H    0.000438  -0.000002  -0.000892   0.000018  -0.000760   0.013143
    15  H   -0.000609  -0.000012   0.001419   0.000064  -0.000760   0.013143
             13         14         15
     1  C   -0.005367   0.001419  -0.000892
     2  H   -0.002816   0.000064   0.000018
     3  C    0.002547  -0.000609   0.000438
     4  H    0.000078  -0.000012  -0.000002
     5  C    0.000353  -0.000013  -0.000013
     6  H    0.000017   0.000002   0.000002
     7  C    0.002547   0.000438  -0.000609
     8  H    0.000078  -0.000002  -0.000012
     9  C   -0.005367  -0.000892   0.001419
    10  H   -0.002816   0.000018   0.000064
    11  C    0.018962  -0.000760  -0.000760
    12  Cl  -0.171606   0.013143   0.013143
    13  O    7.773405   0.340284   0.340284
    14  H    0.340284   0.519218  -0.032671
    15  H    0.340284  -0.032671   0.519218
 Mulliken atomic charges:
              1
     1  C    0.345565
     2  H   -0.372479
     3  C    0.647026
     4  H   -0.420569
     5  C    0.180200
     6  H   -0.418433
     7  C    0.647022
     8  H   -0.420568
     9  C    0.345565
    10  H   -0.372479
    11  C    0.174708
    12  Cl  -0.365721
    13  O   -0.290584
    14  H    0.160374
    15  H    0.160374
 Sum of Mulliken charges=   0.00000
 Atomic charges with hydrogens summed into heavy atoms:
              1
     1  C   -0.026914
     2  H    0.000000
     3  C    0.226457
     4  H    0.000000
     5  C   -0.238233
     6  H    0.000000
     7  C    0.226453
     8  H    0.000000
     9  C   -0.026914
    10  H    0.000000
    11  C    0.174708
    12  Cl  -0.365721
    13  O    0.030163
    14  H    0.000000
    15  H    0.000000
 Sum of Mulliken charges=   0.00000
 Electronic spatial extent (au):  <R**2>=  1643.7621
 Charge=     0.0000 electrons
 Dipole moment (field-independent basis, Debye):
    X=     0.0000    Y=     1.1452    Z=     0.0000  Tot=     1.1452
 Quadrupole moment (field-independent basis, Debye-Ang):
   XX=   -47.2414   YY=   -32.3598   ZZ=   -60.7550
   XY=     0.0000   XZ=     0.0000   YZ=     0.0000
 Traceless Quadrupole moment (field-independent basis, Debye-Ang):
   XX=    -0.4560   YY=    14.4256   ZZ=   -13.9696
   XY=     0.0000   XZ=     0.0000   YZ=     0.0000
 Octapole moment (field-independent basis, Debye-Ang**2):
  XXX=     0.0000  YYY=   130.7805  ZZZ=     0.0000  XYY=     0.0000
  XXY=    14.2198  XXZ=     0.0000  XZZ=     0.0000  YZZ=    15.6129
  YYZ=     0.0000  XYZ=     0.0000
 Hexadecapole moment (field-independent basis, Debye-Ang**3):
 XXXX=  -291.0146 YYYY=  -978.5209 ZZZZ=   -71.7592 XXXY=     0.0000
 XXXZ=     0.0000 YYYX=     0.0000 YYYZ=     0.0000 ZZZX=     0.0000
 ZZZY=     0.0000 XXYY=  -270.6992 XXZZ=   -73.8819 YYZZ=  -339.3334
 XXYZ=     0.0000 YYXZ=     0.0000 ZZXY=     0.0000
 N-N= 3.943665854495D+02 E-N=-2.599620602928D+03  KE= 7.651846974475D+02
 Symmetry A'   KE= 7.090485663170D+02
 Symmetry A"   KE= 5.613613113051D+01
 Variable Step   Value    
 -------- ---- -----------
     1       1    4.913288
 ------------------------------------------------------------------------
                         Z-MATRIX (ANGSTROMS AND DEGREES)
 CD Cent Atom  N1     Length/X     N2    Alpha/Y     N3     Beta/Z      J
 ------------------------------------------------------------------------
   1   1  C     0   0.173030         -1.226543          0.000000
   2   2  H     0  -0.387009         -2.164857          0.000000
   3   3  C     0   1.580080         -1.217204          0.000000
   4   4  H     0   2.122475         -2.167243          0.000000
   5   5  C     0   2.286660          0.000000          0.000000
   6   6  H     0   3.380093          0.000000          0.000000
   7   7  C     0   1.580080          1.217204          0.000000
   8   8  H     0   2.122476          2.167243          0.000000
   9   9  C     0   0.173029          1.226543          0.000000
  10  10  H     0  -0.387010          2.164857          0.000000
  11  11  C     0  -0.512547          0.000000          0.000000
  12  12  Cl    0  -2.266648          0.000000          0.000000
  13      X    12   1.000000( 12)  11   90.000( 26)   9    0.000( 39)   0
  14  13  O    12   2.600000( 13)  13   90.000( 27)  11  180.000( 40)   0
  15  14  H    14   0.957200( 14)  12  127.740( 28)  13  180.000( 41)   0
  16  15  H    14   0.957200( 15)  12  127.740( 29)  13    0.000( 42)   0
 ------------------------------------------------------------------------
                         Z-Matrix orientation:                         
 ---------------------------------------------------------------------
 Center     Atomic     Atomic              Coordinates (Angstroms)
 Number     Number      Type              X           Y           Z
 ---------------------------------------------------------------------
    1          6             0        0.173030   -1.226543    0.000000
    2          1             0       -0.387009   -2.164857    0.000000
    3          6             0        1.580080   -1.217204    0.000000
    4          1             0        2.122475   -2.167243    0.000000
    5          6             0        2.286660    0.000000    0.000000
    6          1             0        3.380093    0.000000    0.000000
    7          6             0        1.580080    1.217204    0.000000
    8          1             0        2.122476    2.167243    0.000000
    9          6             0        0.173029    1.226543    0.000000
   10          1             0       -0.387010    2.164857    0.000000
   11          6             0       -0.512547    0.000000    0.000000
   12         17             0       -2.266648    0.000000    0.000000
   13         -1             0       -2.266648    1.000000    0.000000
   14          8             0       -4.866648    0.000000    0.000000
   15          1             0       -5.452530   -0.756950    0.000000
   16          1             0       -5.452530    0.756950    0.000000
 ---------------------------------------------------------------------
                    Distance matrix (angstroms):
                    1          2          3          4          5
     1  C    0.000000
     2  H    1.092738   0.000000
     3  C    1.407081   2.183457   0.000000
     4  H    2.164544   2.509485   1.093968   0.000000
     5  C    2.443735   3.440220   1.407423   2.173453   0.000000
     6  H    3.433608   4.344843   2.172932   2.505703   1.093433
     7  C    2.819874   3.912515   2.434408   3.427634   1.407423
     8  H    3.913837   5.006456   3.427634   4.334486   2.173453
     9  C    2.453086   3.437330   2.819874   3.913837   2.443736
    10  H    3.437330   4.329714   3.912516   5.006456   3.440221
    11  C    1.405142   2.168494   2.420883   3.411786   2.799207
    12  Cl   2.730648   2.866993   4.034712   4.895032   4.553308
    13  X    3.302957   3.680946   4.439967   5.412562   4.661825
    14  O    5.186787   4.975316   6.560632   7.317430   7.153308
    15  H    5.645126   5.257538   7.047655   7.705169   7.776120
    16  H    5.964996   5.847774   7.304443   8.119828   7.776120
                    6          7          8          9         10
     6  H    0.000000
     7  C    2.172932   0.000000
     8  H    2.505702   1.093969   0.000000
     9  C    3.433608   1.407082   2.164546   0.000000
    10  H    4.344844   2.183458   2.509487   1.092738   0.000000
    11  C    3.892640   2.420883   3.411787   1.405141   2.168494
    12  Cl   5.646741   4.034712   4.895033   2.730647   2.866992
    13  X    5.734604   3.852855   4.541681   2.450173   2.211319
    14  O    8.246741   6.560632   7.317431   5.186786   4.975315
    15  H    8.864999   7.304443   8.119829   5.964995   5.847773
    16  H    8.864999   7.047655   7.705170   5.645125   5.257537
                   11         12         13         14         15
    11  C    0.000000
    12  Cl   1.754101   0.000000
    13  X    2.019126   1.000000   0.000000
    14  O    4.354101   2.600000   2.785678   0.000000
    15  H    4.997640   3.274572   3.638230   0.957200   0.000000
    16  H    4.997640   3.274572   3.195140   0.957200   1.513901
                   16
    16  H    0.000000
                           Interatomic angles:
       H2-C1-C3=121.2114       H2-C1-H4= 95.0716       C1-C3-H4=119.3426
       H2-C3-H4= 94.0002       H2-C1-C5=150.9578       C1-C3-C5=120.5152
       H2-C3-C5=145.8575       C1-H4-C5= 68.5728       H2-H4-C5= 94.2778
       H4-C3-C5=120.1422       C1-C3-H6=146.313        H2-C3-H6=171.6553
       C1-H4-H6= 94.3664       H2-H4-H6=120.0715       H4-C3-H6= 94.3445
       C1-C5-H6=149.8733       C3-C5-H6=120.1349       H4-C5-H6= 94.3323
       H2-C1-C7=179.1011       C1-C3-C7= 90.3803       H2-C3-C7=115.7226
       H4-C1-C7= 85.8272       H4-C3-C7=150.2771       C1-C5-C7= 89.9917
       C3-C5-C7=119.7302       H4-C5-C7=145.5328       C1-C7-H6= 85.865 
       C3-H6-C7= 68.1347       H4-H6-C7= 93.9414       H6-C5-C7=120.1349
       C1-C5-H8=115.7944       C3-C5-H8=145.5328       H4-C5-H8=171.3354
       C3-H6-H8= 93.9414       H4-H6-H8=119.7481       H6-C5-H8= 94.3323
       C1-C7-H8=179.7906       C3-C7-H8=150.2771       C5-C7-H8=120.1422
       H6-C7-H8= 94.3444       H2-C1-C9=149.1688       C3-C1-C9= 89.6197
       H2-C3-C9= 85.7903       H4-C1-C9=115.7595       H4-C3-C9=179.7905
       C1-C5-C9= 60.2533       C3-C5-C9= 89.9917       H4-C5-C9=115.7943
       H6-C3-C9= 85.865        H6-C5-C9=149.8733       C1-C9-C7= 89.6197
       C3-C7-C9= 90.3803       C5-C7-C9=120.5152       H6-C7-C9=146.313 
       C1-C9-H8=115.7595       C3-C9-H8= 85.8272       C5-H8-C9= 68.5728
       H6-H8-C9= 94.3664       H8-C7-C9=119.3426      C1-C7-H10= 85.7903
      C3-C7-H10=115.7226      C5-C7-H10=145.8575      H6-C7-H10=171.6553
      C5-H8-H10= 94.2778      H6-H8-H10=120.0714      H8-C7-H10= 94.0003
      C1-C9-H10=149.1689      C3-C9-H10=179.1012      C5-C9-H10=150.9578
      C7-C9-H10=121.2114      H8-C9-H10= 95.0716      H2-C1-C11=119.9658
      C3-C1-C11=118.8228      C3-H2-C11= 67.5962      H4-C1-C11=144.9626
      H4-H2-C11= 93.3733      H4-C3-C11=149.9078      C5-C1-C11= 89.0764
      H2-C11-C5= 86.6812      C5-C3-C11= 89.9499      H4-C5-C11= 85.6677
      H6-C3-C11=115.7477      H6-C5-C11=180.          C1-C11-C7= 90.982 
      H2-C11-C7=116.8662      C3-C11-C7= 60.37        C5-C7-C11= 89.9499
      H6-C7-C11=115.7477      H8-C5-C11= 85.6677      H8-C7-C11=149.9079
      C1-C11-C9=121.594       H2-C11-C9=147.4782      C3-C11-C9= 90.982 
      C5-C9-C11= 89.0763      C7-C9-C11=118.8227      H8-C9-C11=144.9625
     C1-C11-H10=147.4782     H2-C11-H10=173.3624     C3-C11-H10=116.8662
     C5-C11-H10= 86.6812     C7-H10-C11= 67.5962     H8-H10-C11= 93.3733
     H10-C9-C11=119.9659     H2-C1-Cl12= 85.8597     C3-C1-Cl12=152.9288
     C3-H2-Cl12=105.2435     H4-C1-Cl12=179.0687     H4-H2-Cl12=131.0207
     C5-C1-Cl12=123.1825     C7-C1-Cl12= 93.2414     C1-C9-Cl12= 63.3091
     H2-Cl12-C9= 75.7247     C3-C9-Cl12= 93.2414     C5-C9-Cl12=123.1825
     C7-C9-Cl12=152.9288     H8-C9-Cl12=179.0686    C1-Cl12-H10= 75.7247
    H2-Cl12-H10= 98.0677    C7-H10-Cl12=105.2435    H8-H10-Cl12=131.0206
    H10-C9-Cl12= 85.8597    C1-C11-Cl12=119.203     H2-C11-Cl12= 93.3188
    C3-C11-Cl12=149.815     C5-C11-Cl12=180.        C7-C11-Cl12=149.815 
    C9-C11-Cl12=119.203    H10-C11-Cl12= 93.3188      C1-C9-X13= 84.6949
      C3-C9-X13=114.6272      C5-C9-X13=144.5682      C7-C9-X13=174.3146
      H8-C9-X13=159.5456     C7-H10-X13=122.4899     H8-H10-X13=148.267 
     C9-H10-X13= 89.0437     C1-C11-X13=148.8902     H2-C11-X13=123.006 
     C3-C11-X13=179.5022     C5-C11-X13=150.3129     C7-C11-X13=120.1279
     C9-C11-X13= 89.5159    H10-C11-X13= 63.6316    C1-Cl12-X13=116.6909
    H2-Cl12-X13=139.0338    C9-X13-Cl12= 95.3051   H10-X13-Cl12=121.7875
   C11-Cl12-X13= 90.        C1-Cl12-O14=153.3091    H2-Cl12-O14=130.9662
    C9-Cl12-O14=153.3091   H10-Cl12-O14=130.9662   C11-Cl12-O14=180.    
     C9-X13-O14=164.2676    H10-X13-O14=169.25      C11-X13-O14=129.2753
   X13-Cl12-O14= 90.       Cl12-O14-H15=127.74      X13-O14-H15=148.7775
   Cl12-O14-H16=127.74      X13-O14-H16=106.7025    H15-O14-H16=104.52  
 Stoichiometry    C6H7ClO
 Framework group  CS[SG(C6H7ClO)]
 Deg. of freedom    27
 Full point group                 CS
 Largest Abelian subgroup         CS      NOp   2
 Largest concise Abelian subgroup C1      NOp   1
                         Standard orientation:                         
 ---------------------------------------------------------------------
 Center     Atomic     Atomic              Coordinates (Angstroms)
 Number     Number      Type              X           Y           Z
 ---------------------------------------------------------------------
    1          6             0       -1.226543   -0.905945    0.000000
    2          1             0       -2.164857   -0.345906    0.000000
    3          6             0       -1.217204   -2.312995    0.000000
    4          1             0       -2.167243   -2.855390    0.000000
    5          6             0        0.000000   -3.019575    0.000000
    6          1             0        0.000000   -4.113008    0.000000
    7          6             0        1.217204   -2.312995    0.000000
    8          1             0        2.167243   -2.855391    0.000000
    9          6             0        1.226543   -0.905944    0.000000
   10          1             0        2.164857   -0.345905    0.000000
   11          6             0        0.000000   -0.220368    0.000000
   12         17             0        0.000000    1.533733    0.000000
   13          8             0        0.000000    4.133733    0.000000
   14          1             0       -0.756950    4.719615    0.000000
   15          1             0        0.756950    4.719615    0.000000
 ---------------------------------------------------------------------
 Rotational constants (GHZ):      5.5092566      0.7300612      0.6446369
 Standard basis: Aug-CC-pVDZ (5D, 7F)
 There are   180 symmetry adapted basis functions of A'  symmetry.
 There are    71 symmetry adapted basis functions of A"  symmetry.
 Integral buffers will be    131072 words long.
 Raffenetti 1 integral format.
 Two-electron integral symmetry is turned on.
   251 basis functions,   461 primitive gaussians,   267 cartesian basis functions
    34 alpha electrons       34 beta electrons
       nuclear repulsion energy       392.4371663498 Hartrees.
 NAtoms=   15 NActive=   15 NUniq=   15 SFac= 7.50D-01 NAtFMM=   80 NAOKFM=F Big=F
 One-electron integrals computed using PRISM.
 NBasis=   251 RedAO= T  NBF=   180    71
 NBsUse=   251 1.00D-06 NBFU=   180    71
 Initial guess read from the read-write file:
 Initial guess orbital symmetries:
       Occupied  (A') (A') (A') (A') (A') (A') (A') (A') (A') (A')
                 (A') (A") (A') (A') (A') (A') (A') (A') (A') (A')
                 (A') (A') (A') (A') (A') (A') (A") (A") (A') (A')
                 (A") (A') (A") (A")
       Virtual   (A') (A') (A') (A') (A') (A') (A') (A") (A") (A')
                 (A") (A') (A') (A") (A') (A') (A") (A') (A') (A')
                 (A') (A') (A') (A") (A") (A") (A') (A') (A") (A')
                 (A') (A') (A") (A') (A') (A') (A') (A') (A') (A")
                 (A') (A') (A') (A') (A') (A") (A") (A') (A') (A')
                 (A') (A') (A") (A') (A') (A') (A") (A') (A") (A')
                 (A") (A") (A') (A') (A") (A') (A') (A') (A') (A')
                 (A") (A') (A") (A') (A') (A") (A') (A') (A') (A')
                 (A") (A') (A') (A') (A') (A') (A") (A') (A') (A")
                 (A') (A") (A') (A') (A') (A") (A') (A') (A') (A")
                 (A") (A') (A") (A') (A") (A") (A') (A') (A") (A")
                 (A') (A') (A') (A') (A") (A') (A") (A") (A') (A")
                 (A') (A') (A") (A") (A') (A') (A') (A') (A") (A")
                 (A') (A') (A") (A") (A') (A') (A') (A') (A') (A")
                 (A') (A') (A') (A") (A') (A') (A') (A') (A') (A")
                 (A") (A") (A') (A') (A") (A') (A') (A") (A') (A')
                 (A') (A") (A') (A') (A') (A") (A") (A') (A') (A')
                 (A') (A") (A") (A') (A") (A') (A") (A") (A') (A')
                 (A') (A") (A') (A') (A') (A") (A') (A') (A') (A')
                 (A') (A") (A") (A') (A') (A') (A') (A') (A') (A')
                 (A') (A') (A') (A') (A') (A') (A') (A") (A") (A')
                 (A') (A') (A') (A') (A') (A') (A')
 Harris functional with IExCor=  205 diagonalized for initial guess.
 ExpMin= 2.97D-02 ExpMax= 1.28D+05 ExpMxC= 1.24D+03 IAcc=3 IRadAn=         5 AccDes= 0.00D+00
 HarFok:  IExCor= 205 AccDes= 0.00D+00 IRadAn=         5 IDoV=1
 ScaDFX=  1.000000  1.000000  1.000000  1.000000
 Requested convergence on RMS density matrix=1.00D-08 within 128 cycles.
 Requested convergence on MAX density matrix=1.00D-06.
 Requested convergence on             energy=1.00D-06.
 No special actions if energy rises.
 SCF Done:  E(RHF) =  -765.682280020     A.U. after   15 cycles
             Convg  =    0.6895D-08             -V/T =  2.0007
             S**2   =   0.0000
 ExpMin= 2.97D-02 ExpMax= 1.28D+05 ExpMxC= 1.24D+03 IAcc=3 IRadAn=         5 AccDes= 0.00D+00
 HarFok:  IExCor= 205 AccDes= 0.00D+00 IRadAn=         5 IDoV=1
 ScaDFX=  1.000000  1.000000  1.000000  1.000000
 Range of M.O.s used for correlation:    13   251
 NBasis=   251 NAE=    34 NBE=    34 NFC=    12 NFV=     0
 NROrb=    239 NOA=    22 NOB=    22 NVA=   217 NVB=   217

 **** Warning!!: The largest alpha MO coefficient is  0.13254905D+03

 Disk-based method using OVN memory for 22 occupieds at a time.
 Estimated scratch disk usage=   415818046 words.
 Actual    scratch disk usage=   411892030 words.
 JobTyp=1 Pass  1:  I=   1 to  22 NPSUse=  1 ParTrn=F ParDer=F DoDerP=F.
 Spin components of T(2) and E(2):
     alpha-alpha T2 =       0.6166901490D-01 E2=     -0.1578070488D+00
     alpha-beta  T2 =       0.3154105355D+00 E2=     -0.8682571379D+00
     beta-beta   T2 =       0.6166901490D-01 E2=     -0.1578070488D+00
 ANorm=    0.1199478456D+01
 E2 =    -0.1183871235D+01 EUMP2 =    -0.76686615125532D+03
 Variable Step   Value    
 -------- ---- -----------
     1       2    5.102261
 ------------------------------------------------------------------------
                         Z-MATRIX (ANGSTROMS AND DEGREES)
 CD Cent Atom  N1     Length/X     N2    Alpha/Y     N3     Beta/Z      J
 ------------------------------------------------------------------------
   1   1  C     0   0.173030         -1.226543          0.000000
   2   2  H     0  -0.387009         -2.164857          0.000000
   3   3  C     0   1.580080         -1.217204          0.000000
   4   4  H     0   2.122475         -2.167243          0.000000
   5   5  C     0   2.286660          0.000000          0.000000
   6   6  H     0   3.380093          0.000000          0.000000
   7   7  C     0   1.580080          1.217204          0.000000
   8   8  H     0   2.122476          2.167243          0.000000
   9   9  C     0   0.173029          1.226543          0.000000
  10  10  H     0  -0.387010          2.164857          0.000000
  11  11  C     0  -0.512547          0.000000          0.000000
  12  12  Cl    0  -2.266648          0.000000          0.000000
  13      X    12   1.000000( 12)  11   90.000( 26)   9    0.000( 39)   0
  14  13  O    12   2.700000( 13)  13   90.000( 27)  11  180.000( 40)   0
  15  14  H    14   0.957200( 14)  12  127.740( 28)  13  180.000( 41)   0
  16  15  H    14   0.957200( 15)  12  127.740( 29)  13    0.000( 42)   0
 ------------------------------------------------------------------------
                         Z-Matrix orientation:                         
 ---------------------------------------------------------------------
 Center     Atomic     Atomic              Coordinates (Angstroms)
 Number     Number      Type              X           Y           Z
 ---------------------------------------------------------------------
    1          6             0        0.173030   -1.226543    0.000000
    2          1             0       -0.387009   -2.164857    0.000000
    3          6             0        1.580080   -1.217204    0.000000
    4          1             0        2.122475   -2.167243    0.000000
    5          6             0        2.286660    0.000000    0.000000
    6          1             0        3.380093    0.000000    0.000000
    7          6             0        1.580080    1.217204    0.000000
    8          1             0        2.122476    2.167243    0.000000
    9          6             0        0.173029    1.226543    0.000000
   10          1             0       -0.387010    2.164857    0.000000
   11          6             0       -0.512547    0.000000    0.000000
   12         17             0       -2.266648    0.000000    0.000000
   13         -1             0       -2.266648    1.000000    0.000000
   14          8             0       -4.966648    0.000000    0.000000
   15          1             0       -5.552530   -0.756950    0.000000
   16          1             0       -5.552530    0.756950    0.000000
 ---------------------------------------------------------------------
                    Distance matrix (angstroms):
                    1          2          3          4          5
     1  C    0.000000
     2  H    1.092738   0.000000
     3  C    1.407081   2.183457   0.000000
     4  H    2.164544   2.509485   1.093968   0.000000
     5  C    2.443735   3.440220   1.407423   2.173453   0.000000
     6  H    3.433608   4.344843   2.172932   2.505703   1.093433
     7  C    2.819874   3.912515   2.434408   3.427634   1.407423
     8  H    3.913837   5.006456   3.427634   4.334486   2.173453
     9  C    2.453086   3.437330   2.819874   3.913837   2.443736
    10  H    3.437330   4.329714   3.912516   5.006456   3.440221
    11  C    1.405142   2.168494   2.420883   3.411786   2.799207
    12  Cl   2.730648   2.866993   4.034712   4.895032   4.553308
    13  X    3.302957   3.680946   4.439967   5.412562   4.661825
    14  O    5.284004   5.065540   6.658921   7.413003   7.253308
    15  H    5.744785   5.353953   7.147444   7.803501   7.875651
    16  H    6.059397   5.934608   7.400771   8.213197   7.875651
                    6          7          8          9         10
     6  H    0.000000
     7  C    2.172932   0.000000
     8  H    2.505702   1.093969   0.000000
     9  C    3.433608   1.407082   2.164546   0.000000
    10  H    4.344844   2.183458   2.509487   1.092738   0.000000
    11  C    3.892640   2.420883   3.411787   1.405141   2.168494
    12  Cl   5.646741   4.034712   4.895033   2.730647   2.866992
    13  X    5.734604   3.852855   4.541681   2.450173   2.211319
    14  O    8.346741   6.658921   7.413004   5.284003   5.065539
    15  H    8.964638   7.400771   8.213198   6.059396   5.934607
    16  H    8.964638   7.147444   7.803502   5.744784   5.353952
                   11         12         13         14         15
    11  C    0.000000
    12  Cl   1.754101   0.000000
    13  X    2.019126   1.000000   0.000000
    14  O    4.454101   2.700000   2.879236   0.000000
    15  H    5.096509   3.371942   3.726110   0.957200   0.000000
    16  H    5.096509   3.371942   3.294859   0.957200   1.513901
                   16
    16  H    0.000000
                           Interatomic angles:
       H2-C1-C3=121.2114       H2-C1-H4= 95.0716       C1-C3-H4=119.3426
       H2-C3-H4= 94.0002       H2-C1-C5=150.9578       C1-C3-C5=120.5152
       H2-C3-C5=145.8575       C1-H4-C5= 68.5728       H2-H4-C5= 94.2778
       H4-C3-C5=120.1422       C1-C3-H6=146.313        H2-C3-H6=171.6553
       C1-H4-H6= 94.3664       H2-H4-H6=120.0715       H4-C3-H6= 94.3445
       C1-C5-H6=149.8733       C3-C5-H6=120.1349       H4-C5-H6= 94.3323
       H2-C1-C7=179.1011       C1-C3-C7= 90.3803       H2-C3-C7=115.7226
       H4-C1-C7= 85.8272       H4-C3-C7=150.2771       C1-C5-C7= 89.9917
       C3-C5-C7=119.7302       H4-C5-C7=145.5328       C1-C7-H6= 85.865 
       C3-H6-C7= 68.1347       H4-H6-C7= 93.9414       H6-C5-C7=120.1349
       C1-C5-H8=115.7944       C3-C5-H8=145.5328       H4-C5-H8=171.3354
       C3-H6-H8= 93.9414       H4-H6-H8=119.7481       H6-C5-H8= 94.3323
       C1-C7-H8=179.7906       C3-C7-H8=150.2771       C5-C7-H8=120.1422
       H6-C7-H8= 94.3444       H2-C1-C9=149.1688       C3-C1-C9= 89.6197
       H2-C3-C9= 85.7903       H4-C1-C9=115.7595       H4-C3-C9=179.7905
       C1-C5-C9= 60.2533       C3-C5-C9= 89.9917       H4-C5-C9=115.7943
       H6-C3-C9= 85.865        H6-C5-C9=149.8733       C1-C9-C7= 89.6197
       C3-C7-C9= 90.3803       C5-C7-C9=120.5152       H6-C7-C9=146.313 
       C1-C9-H8=115.7595       C3-C9-H8= 85.8272       C5-H8-C9= 68.5728
       H6-H8-C9= 94.3664       H8-C7-C9=119.3426      C1-C7-H10= 85.7903
      C3-C7-H10=115.7226      C5-C7-H10=145.8575      H6-C7-H10=171.6553
      C5-H8-H10= 94.2778      H6-H8-H10=120.0714      H8-C7-H10= 94.0003
      C1-C9-H10=149.1689      C3-C9-H10=179.1012      C5-C9-H10=150.9578
      C7-C9-H10=121.2114      H8-C9-H10= 95.0716      H2-C1-C11=119.9658
      C3-C1-C11=118.8228      C3-H2-C11= 67.5962      H4-C1-C11=144.9626
      H4-H2-C11= 93.3733      H4-C3-C11=149.9078      C5-C1-C11= 89.0764
      H2-C11-C5= 86.6812      C5-C3-C11= 89.9499      H4-C5-C11= 85.6677
      H6-C3-C11=115.7477      H6-C5-C11=180.          C1-C11-C7= 90.982 
      H2-C11-C7=116.8662      C3-C11-C7= 60.37        C5-C7-C11= 89.9499
      H6-C7-C11=115.7477      H8-C5-C11= 85.6677      H8-C7-C11=149.9079
      C1-C11-C9=121.594       H2-C11-C9=147.4782      C3-C11-C9= 90.982 
      C5-C9-C11= 89.0763      C7-C9-C11=118.8227      H8-C9-C11=144.9625
     C1-C11-H10=147.4782     H2-C11-H10=173.3624     C3-C11-H10=116.8662
     C5-C11-H10= 86.6812     C7-H10-C11= 67.5962     H8-H10-C11= 93.3733
     H10-C9-C11=119.9659     H2-C1-Cl12= 85.8597     C3-C1-Cl12=152.9288
     C3-H2-Cl12=105.2435     H4-C1-Cl12=179.0687     H4-H2-Cl12=131.0207
     C5-C1-Cl12=123.1825     C7-C1-Cl12= 93.2414     C1-C9-Cl12= 63.3091
     H2-Cl12-C9= 75.7247     C3-C9-Cl12= 93.2414     C5-C9-Cl12=123.1825
     C7-C9-Cl12=152.9288     H8-C9-Cl12=179.0686    C1-Cl12-H10= 75.7247
    H2-Cl12-H10= 98.0677    C7-H10-Cl12=105.2435    H8-H10-Cl12=131.0206
    H10-C9-Cl12= 85.8597    C1-C11-Cl12=119.203     H2-C11-Cl12= 93.3188
    C3-C11-Cl12=149.815     C5-C11-Cl12=180.        C7-C11-Cl12=149.815 
    C9-C11-Cl12=119.203    H10-C11-Cl12= 93.3188      C1-C9-X13= 84.6949
      C3-C9-X13=114.6272      C5-C9-X13=144.5682      C7-C9-X13=174.3146
      H8-C9-X13=159.5456     C7-H10-X13=122.4899     H8-H10-X13=148.267 
     C9-H10-X13= 89.0437     C1-C11-X13=148.8902     H2-C11-X13=123.006 
     C3-C11-X13=179.5022     C5-C11-X13=150.3129     C7-C11-X13=120.1279
     C9-C11-X13= 89.5159    H10-C11-X13= 63.6316    C1-Cl12-X13=116.6909
    H2-Cl12-X13=139.0338    C9-X13-Cl12= 95.3051   H10-X13-Cl12=121.7875
   C11-Cl12-X13= 90.        C1-Cl12-O14=153.3091    H2-Cl12-O14=130.9662
    C9-Cl12-O14=153.3091   H10-Cl12-O14=130.9662   C11-Cl12-O14=180.    
     C9-X13-O14=164.982     H10-X13-O14=168.5356    C11-X13-O14=129.9897
   X13-Cl12-O14= 90.       Cl12-O14-H15=127.74      X13-O14-H15=148.0631
   Cl12-O14-H16=127.74      X13-O14-H16=107.4169    H15-O14-H16=104.52  
 Stoichiometry    C6H7ClO
 Framework group  CS[SG(C6H7ClO)]
 Deg. of freedom    27
 Full point group                 CS
 Largest Abelian subgroup         CS      NOp   2
 Largest concise Abelian subgroup C1      NOp   1
                         Standard orientation:                         
 ---------------------------------------------------------------------
 Center     Atomic     Atomic              Coordinates (Angstroms)
 Number     Number      Type              X           Y           Z
 ---------------------------------------------------------------------
    1          6             0       -1.226543   -0.920651    0.000000
    2          1             0       -2.164857   -0.360612    0.000000
    3          6             0       -1.217204   -2.327701    0.000000
    4          1             0       -2.167243   -2.870096    0.000000
    5          6             0        0.000000   -3.034281    0.000000
    6          1             0        0.000000   -4.127714    0.000000
    7          6             0        1.217204   -2.327701    0.000000
    8          1             0        2.167243   -2.870097    0.000000
    9          6             0        1.226543   -0.920650    0.000000
   10          1             0        2.164857   -0.360611    0.000000
   11          6             0        0.000000   -0.235074    0.000000
   12         17             0        0.000000    1.519027    0.000000
   13          8             0        0.000000    4.219027    0.000000
   14          1             0       -0.756950    4.804909    0.000000
   15          1             0        0.756950    4.804909    0.000000
 ---------------------------------------------------------------------
 Rotational constants (GHZ):      5.5092566      0.7143637      0.6323672
 Standard basis: Aug-CC-pVDZ (5D, 7F)
 There are   180 symmetry adapted basis functions of A'  symmetry.
 There are    71 symmetry adapted basis functions of A"  symmetry.
 Integral buffers will be    131072 words long.
 Raffenetti 1 integral format.
 Two-electron integral symmetry is turned on.
   251 basis functions,   461 primitive gaussians,   267 cartesian basis functions
    34 alpha electrons       34 beta electrons
       nuclear repulsion energy       390.6217382088 Hartrees.
 NAtoms=   15 NActive=   15 NUniq=   15 SFac= 7.50D-01 NAtFMM=   80 NAOKFM=F Big=F
 One-electron integrals computed using PRISM.
 NBasis=   251 RedAO= T  NBF=   180    71
 NBsUse=   251 1.00D-06 NBFU=   180    71
 Initial guess read from the read-write file:
 Initial guess orbital symmetries:
       Occupied  (A') (A') (A') (A') (A') (A') (A') (A') (A') (A')
                 (A') (A") (A') (A') (A') (A') (A') (A') (A') (A')
                 (A') (A') (A') (A') (A') (A') (A") (A") (A') (A')
                 (A") (A') (A") (A")
       Virtual   (A') (A') (A') (A') (A') (A') (A') (A") (A") (A')
                 (A") (A') (A') (A") (A') (A') (A") (A') (A') (A')
                 (A') (A') (A') (A") (A") (A") (A') (A') (A") (A')
                 (A') (A') (A") (A') (A') (A') (A') (A') (A') (A")
                 (A') (A') (A') (A') (A') (A") (A") (A') (A') (A')
                 (A') (A') (A") (A') (A') (A') (A") (A') (A") (A')
                 (A") (A") (A') (A') (A") (A') (A') (A') (A') (A")
                 (A') (A') (A") (A') (A') (A") (A') (A') (A') (A')
                 (A") (A') (A') (A') (A') (A') (A") (A') (A') (A")
                 (A') (A") (A') (A') (A') (A") (A') (A') (A') (A")
                 (A') (A") (A') (A") (A") (A") (A') (A') (A") (A")
                 (A') (A') (A') (A') (A") (A') (A") (A") (A') (A")
                 (A') (A') (A") (A") (A') (A') (A') (A') (A") (A")
                 (A') (A') (A") (A") (A') (A') (A') (A") (A') (A')
                 (A') (A') (A") (A') (A') (A') (A') (A') (A') (A")
                 (A") (A") (A') (A') (A") (A') (A') (A") (A') (A')
                 (A') (A") (A') (A') (A') (A") (A') (A") (A') (A')
                 (A') (A") (A') (A") (A") (A') (A") (A") (A') (A')
                 (A') (A") (A') (A') (A') (A") (A') (A') (A') (A')
                 (A') (A") (A") (A') (A') (A') (A') (A') (A') (A')
                 (A') (A') (A') (A') (A') (A') (A') (A') (A') (A')
                 (A") (A") (A') (A') (A') (A') (A')
 Harris functional with IExCor=  205 diagonalized for initial guess.
 ExpMin= 2.97D-02 ExpMax= 1.28D+05 ExpMxC= 1.24D+03 IAcc=3 IRadAn=         5 AccDes= 0.00D+00
 HarFok:  IExCor= 205 AccDes= 0.00D+00 IRadAn=         5 IDoV=1
 ScaDFX=  1.000000  1.000000  1.000000  1.000000
 Requested convergence on RMS density matrix=1.00D-08 within 128 cycles.
 Requested convergence on MAX density matrix=1.00D-06.
 Requested convergence on             energy=1.00D-06.
 No special actions if energy rises.
 SCF Done:  E(RHF) =  -765.684636412     A.U. after   12 cycles
             Convg  =    0.7984D-08             -V/T =  2.0007
             S**2   =   0.0000
 ExpMin= 2.97D-02 ExpMax= 1.28D+05 ExpMxC= 1.24D+03 IAcc=3 IRadAn=         5 AccDes= 0.00D+00
 HarFok:  IExCor= 205 AccDes= 0.00D+00 IRadAn=         5 IDoV=1
 ScaDFX=  1.000000  1.000000  1.000000  1.000000
 Range of M.O.s used for correlation:    13   251
 NBasis=   251 NAE=    34 NBE=    34 NFC=    12 NFV=     0
 NROrb=    239 NOA=    22 NOB=    22 NVA=   217 NVB=   217

 **** Warning!!: The largest alpha MO coefficient is  0.13352959D+03

 Disk-based method using OVN memory for 22 occupieds at a time.
 Estimated scratch disk usage=   414267966 words.
 Actual    scratch disk usage=   410386494 words.
 JobTyp=1 Pass  1:  I=   1 to  22 NPSUse=  1 ParTrn=F ParDer=F DoDerP=F.
 Spin components of T(2) and E(2):
     alpha-alpha T2 =       0.6161124014D-01 E2=     -0.1576349384D+00
     alpha-beta  T2 =       0.3153439627D+00 E2=     -0.8679036650D+00
     beta-beta   T2 =       0.6161124014D-01 E2=     -0.1576349384D+00
 ANorm=    0.1199402536D+01
 E2 =    -0.1183173542D+01 EUMP2 =    -0.76686780995414D+03
 Variable Step   Value    
 -------- ---- -----------
     1       3    5.291233
 ------------------------------------------------------------------------
                         Z-MATRIX (ANGSTROMS AND DEGREES)
 CD Cent Atom  N1     Length/X     N2    Alpha/Y     N3     Beta/Z      J
 ------------------------------------------------------------------------
   1   1  C     0   0.173030         -1.226543          0.000000
   2   2  H     0  -0.387009         -2.164857          0.000000
   3   3  C     0   1.580080         -1.217204          0.000000
   4   4  H     0   2.122475         -2.167243          0.000000
   5   5  C     0   2.286660          0.000000          0.000000
   6   6  H     0   3.380093          0.000000          0.000000
   7   7  C     0   1.580080          1.217204          0.000000
   8   8  H     0   2.122476          2.167243          0.000000
   9   9  C     0   0.173029          1.226543          0.000000
  10  10  H     0  -0.387010          2.164857          0.000000
  11  11  C     0  -0.512547          0.000000          0.000000
  12  12  Cl    0  -2.266648          0.000000          0.000000
  13      X    12   1.000000( 12)  11   90.000( 26)   9    0.000( 39)   0
  14  13  O    12   2.800000( 13)  13   90.000( 27)  11  180.000( 40)   0
  15  14  H    14   0.957200( 14)  12  127.740( 28)  13  180.000( 41)   0
  16  15  H    14   0.957200( 15)  12  127.740( 29)  13    0.000( 42)   0
 ------------------------------------------------------------------------
                         Z-Matrix orientation:                         
 ---------------------------------------------------------------------
 Center     Atomic     Atomic              Coordinates (Angstroms)
 Number     Number      Type              X           Y           Z
 ---------------------------------------------------------------------
    1          6             0        0.173030   -1.226543    0.000000
    2          1             0       -0.387009   -2.164857    0.000000
    3          6             0        1.580080   -1.217204    0.000000
    4          1             0        2.122475   -2.167243    0.000000
    5          6             0        2.286660    0.000000    0.000000
    6          1             0        3.380093    0.000000    0.000000
    7          6             0        1.580080    1.217204    0.000000
    8          1             0        2.122476    2.167243    0.000000
    9          6             0        0.173029    1.226543    0.000000
   10          1             0       -0.387010    2.164857    0.000000
   11          6             0       -0.512547    0.000000    0.000000
   12         17             0       -2.266648    0.000000    0.000000
   13         -1             0       -2.266648    1.000000    0.000000
   14          8             0       -5.066648    0.000000    0.000000
   15          1             0       -5.652530   -0.756950    0.000000
   16          1             0       -5.652530    0.756950    0.000000
 ---------------------------------------------------------------------
                    Distance matrix (angstroms):
                    1          2          3          4          5
     1  C    0.000000
     2  H    1.092738   0.000000
     3  C    1.407081   2.183457   0.000000
     4  H    2.164544   2.509485   1.093968   0.000000
     5  C    2.443735   3.440220   1.407423   2.173453   0.000000
     6  H    3.433608   4.344843   2.172932   2.505703   1.093433
     7  C    2.819874   3.912515   2.434408   3.427634   1.407423
     8  H    3.913837   5.006456   3.427634   4.334486   2.173453
     9  C    2.453086   3.437330   2.819874   3.913837   2.443736
    10  H    3.437330   4.329714   3.912516   5.006456   3.440221
    11  C    1.405142   2.168494   2.420883   3.411786   2.799207
    12  Cl   2.730648   2.866993   4.034712   4.895032   4.553308
    13  X    3.302957   3.680946   4.439967   5.412562   4.661825
    14  O    5.381323   5.156125   6.757261   7.508690   7.353308
    15  H    5.844456   5.450497   7.247240   7.901875   7.975194
    16  H    6.153974   6.021850   7.497195   8.306721   7.975194
                    6          7          8          9         10
     6  H    0.000000
     7  C    2.172932   0.000000
     8  H    2.505702   1.093969   0.000000
     9  C    3.433608   1.407082   2.164546   0.000000
    10  H    4.344844   2.183458   2.509487   1.092738   0.000000
    11  C    3.892640   2.420883   3.411787   1.405141   2.168494
    12  Cl   5.646741   4.034712   4.895033   2.730647   2.866992
    13  X    5.734604   3.852855   4.541681   2.450173   2.211319
    14  O    8.446741   6.757261   7.508691   5.381322   5.156124
    15  H    9.064285   7.497195   8.306722   6.153973   6.021849
    16  H    9.064285   7.247240   7.901876   5.844455   5.450496
                   11         12         13         14         15
    11  C    0.000000
    12  Cl   1.754101   0.000000
    13  X    2.019126   1.000000   0.000000
    14  O    4.554101   2.800000   2.973214   0.000000
    15  H    5.195421   3.469463   3.814587   0.957200   0.000000
    16  H    5.195421   3.469463   3.394595   0.957200   1.513901
                   16
    16  H    0.000000
                           Interatomic angles:
       H2-C1-C3=121.2114       H2-C1-H4= 95.0716       C1-C3-H4=119.3426
       H2-C3-H4= 94.0002       H2-C1-C5=150.9578       C1-C3-C5=120.5152
       H2-C3-C5=145.8575       C1-H4-C5= 68.5728       H2-H4-C5= 94.2778
       H4-C3-C5=120.1422       C1-C3-H6=146.313        H2-C3-H6=171.6553
       C1-H4-H6= 94.3664       H2-H4-H6=120.0715       H4-C3-H6= 94.3445
       C1-C5-H6=149.8733       C3-C5-H6=120.1349       H4-C5-H6= 94.3323
       H2-C1-C7=179.1011       C1-C3-C7= 90.3803       H2-C3-C7=115.7226
       H4-C1-C7= 85.8272       H4-C3-C7=150.2771       C1-C5-C7= 89.9917
       C3-C5-C7=119.7302       H4-C5-C7=145.5328       C1-C7-H6= 85.865 
       C3-H6-C7= 68.1347       H4-H6-C7= 93.9414       H6-C5-C7=120.1349
       C1-C5-H8=115.7944       C3-C5-H8=145.5328       H4-C5-H8=171.3354
       C3-H6-H8= 93.9414       H4-H6-H8=119.7481       H6-C5-H8= 94.3323
       C1-C7-H8=179.7906       C3-C7-H8=150.2771       C5-C7-H8=120.1422
       H6-C7-H8= 94.3444       H2-C1-C9=149.1688       C3-C1-C9= 89.6197
       H2-C3-C9= 85.7903       H4-C1-C9=115.7595       H4-C3-C9=179.7905
       C1-C5-C9= 60.2533       C3-C5-C9= 89.9917       H4-C5-C9=115.7943
       H6-C3-C9= 85.865        H6-C5-C9=149.8733       C1-C9-C7= 89.6197
       C3-C7-C9= 90.3803       C5-C7-C9=120.5152       H6-C7-C9=146.313 
       C1-C9-H8=115.7595       C3-C9-H8= 85.8272       C5-H8-C9= 68.5728
       H6-H8-C9= 94.3664       H8-C7-C9=119.3426      C1-C7-H10= 85.7903
      C3-C7-H10=115.7226      C5-C7-H10=145.8575      H6-C7-H10=171.6553
      C5-H8-H10= 94.2778      H6-H8-H10=120.0714      H8-C7-H10= 94.0003
      C1-C9-H10=149.1689      C3-C9-H10=179.1012      C5-C9-H10=150.9578
      C7-C9-H10=121.2114      H8-C9-H10= 95.0716      H2-C1-C11=119.9658
      C3-C1-C11=118.8228      C3-H2-C11= 67.5962      H4-C1-C11=144.9626
      H4-H2-C11= 93.3733      H4-C3-C11=149.9078      C5-C1-C11= 89.0764
      H2-C11-C5= 86.6812      C5-C3-C11= 89.9499      H4-C5-C11= 85.6677
      H6-C3-C11=115.7477      H6-C5-C11=180.          C1-C11-C7= 90.982 
      H2-C11-C7=116.8662      C3-C11-C7= 60.37        C5-C7-C11= 89.9499
      H6-C7-C11=115.7477      H8-C5-C11= 85.6677      H8-C7-C11=149.9079
      C1-C11-C9=121.594       H2-C11-C9=147.4782      C3-C11-C9= 90.982 
      C5-C9-C11= 89.0763      C7-C9-C11=118.8227      H8-C9-C11=144.9625
     C1-C11-H10=147.4782     H2-C11-H10=173.3624     C3-C11-H10=116.8662
     C5-C11-H10= 86.6812     C7-H10-C11= 67.5962     H8-H10-C11= 93.3733
     H10-C9-C11=119.9659     H2-C1-Cl12= 85.8597     C3-C1-Cl12=152.9288
     C3-H2-Cl12=105.2435     H4-C1-Cl12=179.0687     H4-H2-Cl12=131.0207
     C5-C1-Cl12=123.1825     C7-C1-Cl12= 93.2414     C1-C9-Cl12= 63.3091
     H2-Cl12-C9= 75.7247     C3-C9-Cl12= 93.2414     C5-C9-Cl12=123.1825
     C7-C9-Cl12=152.9288     H8-C9-Cl12=179.0686    C1-Cl12-H10= 75.7247
    H2-Cl12-H10= 98.0677    C7-H10-Cl12=105.2435    H8-H10-Cl12=131.0206
    H10-C9-Cl12= 85.8597    C1-C11-Cl12=119.203     H2-C11-Cl12= 93.3188
    C3-C11-Cl12=149.815     C5-C11-Cl12=180.        C7-C11-Cl12=149.815 
    C9-C11-Cl12=119.203    H10-C11-Cl12= 93.3188      C1-C9-X13= 84.6949
      C3-C9-X13=114.6272      C5-C9-X13=144.5682      C7-C9-X13=174.3146
      H8-C9-X13=159.5456     C7-H10-X13=122.4899     H8-H10-X13=148.267 
     C9-H10-X13= 89.0437     C1-C11-X13=148.8902     H2-C11-X13=123.006 
     C3-C11-X13=179.5022     C5-C11-X13=150.3129     C7-C11-X13=120.1279
     C9-C11-X13= 89.5159    H10-C11-X13= 63.6316    C1-Cl12-X13=116.6909
    H2-Cl12-X13=139.0338    C9-X13-Cl12= 95.3051   H10-X13-Cl12=121.7875
   C11-Cl12-X13= 90.        C1-Cl12-O14=153.3091    H2-Cl12-O14=130.9662
    C9-Cl12-O14=153.3091   H10-Cl12-O14=130.9662   C11-Cl12-O14=180.    
     C9-X13-O14=165.6513    H10-X13-O14=167.8663    C11-X13-O14=130.659 
   X13-Cl12-O14= 90.       Cl12-O14-H15=127.74      X13-O14-H15=147.3938
   Cl12-O14-H16=127.74      X13-O14-H16=108.0862    H15-O14-H16=104.52  
 Stoichiometry    C6H7ClO
 Framework group  CS[SG(C6H7ClO)]
 Deg. of freedom    27
 Full point group                 CS
 Largest Abelian subgroup         CS      NOp   2
 Largest concise Abelian subgroup C1      NOp   1
                         Standard orientation:                         
 ---------------------------------------------------------------------
 Center     Atomic     Atomic              Coordinates (Angstroms)
 Number     Number      Type              X           Y           Z
 ---------------------------------------------------------------------
    1          6             0       -1.226543   -0.935357    0.000000
    2          1             0       -2.164857   -0.375318    0.000000
    3          6             0       -1.217204   -2.342407    0.000000
    4          1             0       -2.167243   -2.884802    0.000000
    5          6             0        0.000000   -3.048987    0.000000
    6          1             0        0.000000   -4.142420    0.000000
    7          6             0        1.217204   -2.342407    0.000000
    8          1             0        2.167243   -2.884803    0.000000
    9          6             0        1.226543   -0.935356    0.000000
   10          1             0        2.164857   -0.375317    0.000000
   11          6             0        0.000000   -0.249780    0.000000
   12         17             0        0.000000    1.504321    0.000000
   13          8             0        0.000000    4.304321    0.000000
   14          1             0       -0.756950    4.890203    0.000000
   15          1             0        0.756950    4.890203    0.000000
 ---------------------------------------------------------------------
 Rotational constants (GHZ):      5.5092566      0.6990270      0.6203194
 Standard basis: Aug-CC-pVDZ (5D, 7F)
 There are   180 symmetry adapted basis functions of A'  symmetry.
 There are    71 symmetry adapted basis functions of A"  symmetry.
 Integral buffers will be    131072 words long.
 Raffenetti 1 integral format.
 Two-electron integral symmetry is turned on.
   251 basis functions,   461 primitive gaussians,   267 cartesian basis functions
    34 alpha electrons       34 beta electrons
       nuclear repulsion energy       388.9096019571 Hartrees.
 NAtoms=   15 NActive=   15 NUniq=   15 SFac= 7.50D-01 NAtFMM=   80 NAOKFM=F Big=F
 One-electron integrals computed using PRISM.
 NBasis=   251 RedAO= T  NBF=   180    71
 NBsUse=   251 1.00D-06 NBFU=   180    71
 Initial guess read from the read-write file:
 Initial guess orbital symmetries:
       Occupied  (A') (A') (A') (A') (A') (A') (A') (A') (A') (A')
                 (A') (A") (A') (A') (A') (A') (A') (A') (A') (A')
                 (A') (A') (A') (A') (A') (A') (A") (A") (A') (A')
                 (A") (A') (A") (A")
       Virtual   (A') (A') (A') (A') (A') (A') (A') (A") (A") (A')
                 (A") (A') (A') (A") (A') (A') (A") (A') (A') (A')
                 (A') (A') (A') (A") (A") (A") (A') (A') (A") (A')
                 (A') (A') (A") (A') (A') (A') (A') (A') (A') (A")
                 (A') (A') (A') (A') (A') (A") (A") (A') (A') (A')
                 (A') (A') (A") (A') (A') (A') (A") (A') (A") (A')
                 (A") (A") (A') (A') (A") (A') (A') (A') (A') (A")
                 (A') (A') (A") (A') (A') (A") (A') (A') (A') (A')
                 (A") (A') (A') (A') (A') (A') (A") (A') (A') (A")
                 (A') (A") (A') (A') (A') (A") (A') (A') (A') (A')
                 (A") (A") (A') (A") (A") (A") (A') (A') (A") (A")
                 (A') (A') (A') (A') (A") (A') (A") (A") (A') (A")
                 (A') (A') (A") (A") (A') (A') (A') (A') (A") (A')
                 (A") (A') (A") (A") (A') (A') (A') (A") (A') (A')
                 (A') (A') (A") (A') (A') (A') (A') (A') (A') (A")
                 (A") (A") (A') (A') (A") (A') (A') (A') (A") (A')
                 (A') (A") (A') (A') (A') (A") (A') (A") (A') (A')
                 (A') (A") (A') (A") (A') (A") (A") (A") (A') (A')
                 (A') (A') (A") (A') (A') (A") (A') (A') (A') (A')
                 (A') (A") (A") (A') (A') (A') (A') (A') (A') (A')
                 (A') (A') (A') (A') (A') (A') (A') (A') (A') (A')
                 (A") (A") (A') (A') (A') (A') (A')
 Harris functional with IExCor=  205 diagonalized for initial guess.
 ExpMin= 2.97D-02 ExpMax= 1.28D+05 ExpMxC= 1.24D+03 IAcc=3 IRadAn=         5 AccDes= 0.00D+00
 HarFok:  IExCor= 205 AccDes= 0.00D+00 IRadAn=         5 IDoV=1
 ScaDFX=  1.000000  1.000000  1.000000  1.000000
 Requested convergence on RMS density matrix=1.00D-08 within 128 cycles.
 Requested convergence on MAX density matrix=1.00D-06.
 Requested convergence on             energy=1.00D-06.
 No special actions if energy rises.
 SCF Done:  E(RHF) =  -765.686232468     A.U. after   11 cycles
             Convg  =    0.9865D-08             -V/T =  2.0007
             S**2   =   0.0000
 ExpMin= 2.97D-02 ExpMax= 1.28D+05 ExpMxC= 1.24D+03 IAcc=3 IRadAn=         5 AccDes= 0.00D+00
 HarFok:  IExCor= 205 AccDes= 0.00D+00 IRadAn=         5 IDoV=1
 ScaDFX=  1.000000  1.000000  1.000000  1.000000
 Range of M.O.s used for correlation:    13   251
 NBasis=   251 NAE=    34 NBE=    34 NFC=    12 NFV=     0
 NROrb=    239 NOA=    22 NOB=    22 NVA=   217 NVB=   217

 **** Warning!!: The largest alpha MO coefficient is  0.13479680D+03

 Disk-based method using OVN memory for 22 occupieds at a time.
 Estimated scratch disk usage=   414034246 words.
 Actual    scratch disk usage=   410205510 words.
 JobTyp=1 Pass  1:  I=   1 to  22 NPSUse=  1 ParTrn=F ParDer=F DoDerP=F.
 Spin components of T(2) and E(2):
     alpha-alpha T2 =       0.6156290230D-01 E2=     -0.1574916517D+00
     alpha-beta  T2 =       0.3152863545D+00 E2=     -0.8675985204D+00
     beta-beta   T2 =       0.6156290230D-01 E2=     -0.1574916517D+00
 ANorm=    0.1199338217D+01
 E2 =    -0.1182581824D+01 EUMP2 =    -0.76686881429154D+03
 Variable Step   Value    
 -------- ---- -----------
     1       4    5.480206
 ------------------------------------------------------------------------
                         Z-MATRIX (ANGSTROMS AND DEGREES)
 CD Cent Atom  N1     Length/X     N2    Alpha/Y     N3     Beta/Z      J
 ------------------------------------------------------------------------
   1   1  C     0   0.173030         -1.226543          0.000000
   2   2  H     0  -0.387009         -2.164857          0.000000
   3   3  C     0   1.580080         -1.217204          0.000000
   4   4  H     0   2.122475         -2.167243          0.000000
   5   5  C     0   2.286660          0.000000          0.000000
   6   6  H     0   3.380093          0.000000          0.000000
   7   7  C     0   1.580080          1.217204          0.000000
   8   8  H     0   2.122476          2.167243          0.000000
   9   9  C     0   0.173029          1.226543          0.000000
  10  10  H     0  -0.387010          2.164857          0.000000
  11  11  C     0  -0.512547          0.000000          0.000000
  12  12  Cl    0  -2.266648          0.000000          0.000000
  13      X    12   1.000000( 12)  11   90.000( 26)   9    0.000( 39)   0
  14  13  O    12   2.900000( 13)  13   90.000( 27)  11  180.000( 40)   0
  15  14  H    14   0.957200( 14)  12  127.740( 28)  13  180.000( 41)   0
  16  15  H    14   0.957200( 15)  12  127.740( 29)  13    0.000( 42)   0
 ------------------------------------------------------------------------
                         Z-Matrix orientation:                         
 ---------------------------------------------------------------------
 Center     Atomic     Atomic              Coordinates (Angstroms)
 Number     Number      Type              X           Y           Z
 ---------------------------------------------------------------------
    1          6             0        0.173030   -1.226543    0.000000
    2          1             0       -0.387009   -2.164857    0.000000
    3          6             0        1.580080   -1.217204    0.000000
    4          1             0        2.122475   -2.167243    0.000000
    5          6             0        2.286660    0.000000    0.000000
    6          1             0        3.380093    0.000000    0.000000
    7          6             0        1.580080    1.217204    0.000000
    8          1             0        2.122476    2.167243    0.000000
    9          6             0        0.173029    1.226543    0.000000
   10          1             0       -0.387010    2.164857    0.000000
   11          6             0       -0.512547    0.000000    0.000000
   12         17             0       -2.266648    0.000000    0.000000
   13         -1             0       -2.266648    1.000000    0.000000
   14          8             0       -5.166648    0.000000    0.000000
   15          1             0       -5.752530   -0.756950    0.000000
[...]
 Requested convergence on MAX density matrix=1.00D-06.
 Requested convergence on             energy=1.00D-06.
 No special actions if energy rises.
 SCF Done:  E(RHF) =  -765.689066017     A.U. after   11 cycles
             Convg  =    0.4376D-08             -V/T =  2.0008
             S**2   =   0.0000
 ExpMin= 2.97D-02 ExpMax= 1.28D+05 ExpMxC= 1.24D+03 IAcc=3 IRadAn=         5 AccDes= 0.00D+00
 HarFok:  IExCor= 205 AccDes= 0.00D+00 IRadAn=         5 IDoV=1
 ScaDFX=  1.000000  1.000000  1.000000  1.000000
 Range of M.O.s used for correlation:    13   251
 NBasis=   251 NAE=    34 NBE=    34 NFC=    12 NFV=     0
 NROrb=    239 NOA=    22 NOB=    22 NVA=   217 NVB=   217

 **** Warning!!: The largest alpha MO coefficient is  0.14503340D+03

 Disk-based method using OVN memory for 22 occupieds at a time.
 Estimated scratch disk usage=   386108052 words.
 Actual    scratch disk usage=   381500052 words.
 JobTyp=1 Pass  1:  I=   1 to  22 NPSUse=  1 ParTrn=F ParDer=F DoDerP=F.
 Spin components of T(2) and E(2):
     alpha-alpha T2 =       0.6128850249D-01 E2=     -0.1567572283D+00
     alpha-beta  T2 =       0.3148372853D+00 E2=     -0.8658329496D+00
     beta-beta   T2 =       0.6128850249D-01 E2=     -0.1567572283D+00
 ANorm=    0.1198922137D+01
 E2 =    -0.1179347406D+01 EUMP2 =    -0.76686841342266D+03
 Variable Step   Value    
 -------- ---- -----------
     1      25    9.448631
 ------------------------------------------------------------------------
                         Z-MATRIX (ANGSTROMS AND DEGREES)
 CD Cent Atom  N1     Length/X     N2    Alpha/Y     N3     Beta/Z      J
 ------------------------------------------------------------------------
   1   1  C     0   0.173030         -1.226543          0.000000
   2   2  H     0  -0.387009         -2.164857          0.000000
   3   3  C     0   1.580080         -1.217204          0.000000
   4   4  H     0   2.122475         -2.167243          0.000000
   5   5  C     0   2.286660          0.000000          0.000000
   6   6  H     0   3.380093          0.000000          0.000000
   7   7  C     0   1.580080          1.217204          0.000000
   8   8  H     0   2.122476          2.167243          0.000000
   9   9  C     0   0.173029          1.226543          0.000000
  10  10  H     0  -0.387010          2.164857          0.000000
  11  11  C     0  -0.512547          0.000000          0.000000
  12  12  Cl    0  -2.266648          0.000000          0.000000
  13      X    12   1.000000( 12)  11   90.000( 26)   9    0.000( 39)   0
  14  13  O    12   5.000000( 13)  13   90.000( 27)  11  180.000( 40)   0
  15  14  H    14   0.957200( 14)  12  127.740( 28)  13  180.000( 41)   0
  16  15  H    14   0.957200( 15)  12  127.740( 29)  13    0.000( 42)   0
 ------------------------------------------------------------------------
                         Z-Matrix orientation:                         
 ---------------------------------------------------------------------
 Center     Atomic     Atomic              Coordinates (Angstroms)
 Number     Number      Type              X           Y           Z
 ---------------------------------------------------------------------
    1          6             0        0.173030   -1.226543    0.000000
    2          1             0       -0.387009   -2.164857    0.000000
    3          6             0        1.580080   -1.217204    0.000000
    4          1             0        2.122475   -2.167243    0.000000
    5          6             0        2.286660    0.000000    0.000000
    6          1             0        3.380093    0.000000    0.000000
    7          6             0        1.580080    1.217204    0.000000
    8          1             0        2.122476    2.167243    0.000000
    9          6             0        0.173029    1.226543    0.000000
   10          1             0       -0.387010    2.164857    0.000000
   11          6             0       -0.512547    0.000000    0.000000
   12         17             0       -2.266648    0.000000    0.000000
   13         -1             0       -2.266648    1.000000    0.000000
   14          8             0       -7.266648    0.000000    0.000000
   15          1             0       -7.852530   -0.756950    0.000000
   16          1             0       -7.852530    0.756950    0.000000
 ---------------------------------------------------------------------
                    Distance matrix (angstroms):
                    1          2          3          4          5
     1  C    0.000000
     2  H    1.092738   0.000000
     3  C    1.407081   2.183457   0.000000
     4  H    2.164544   2.509485   1.093968   0.000000
     5  C    2.443735   3.440220   1.407423   2.173453   0.000000
     6  H    3.433608   4.344843   2.172932   2.505703   1.093433
     7  C    2.819874   3.912515   2.434408   3.427634   1.407423
     8  H    3.913837   5.006456   3.427634   4.334486   2.173453
     9  C    2.453086   3.437330   2.819874   3.913837   2.443736
    10  H    3.437330   4.329714   3.912516   5.006456   3.440221
    11  C    1.405142   2.168494   2.420883   3.411786   2.799207
    12  Cl   2.730648   2.866993   4.034712   4.895032   4.553308
    13  X    3.302957   3.680946   4.439967   5.412562   4.661825
    14  O    7.540107   7.212215   8.930072   9.636004   9.553308
    15  H    8.039287   7.597118   9.443832  10.074207  10.167406
    16  H    8.267035   8.016917   9.636982  10.394789  10.167406
                    6          7          8          9         10
     6  H    0.000000
     7  C    2.172932   0.000000
     8  H    2.505702   1.093969   0.000000
     9  C    3.433608   1.407082   2.164546   0.000000
    10  H    4.344844   2.183458   2.509487   1.092738   0.000000
    11  C    3.892640   2.420883   3.411787   1.405141   2.168494
    12  Cl   5.646741   4.034712   4.895033   2.730647   2.866992
    13  X    5.734604   3.852855   4.541681   2.450173   2.211319
    14  O   10.646741   8.930072   9.636005   7.540106   7.212214
    15  H   11.258099   9.636982  10.394790   8.267034   8.016917
    16  H   11.258099   9.443832  10.074208   8.039286   7.597117
                   11         12         13         14         15
    11  C    0.000000
    12  Cl   1.754101   0.000000
    13  X    2.019126   1.000000   0.000000
    14  O    6.754101   5.000000   5.099020   0.000000
    15  H    7.378911   5.636937   5.855677   0.957200   0.000000
    16  H    7.378911   5.636937   5.591167   0.957200   1.513901
                   16
    16  H    0.000000
                           Interatomic angles:
       H2-C1-C3=121.2114       H2-C1-H4= 95.0716       C1-C3-H4=119.3426
       H2-C3-H4= 94.0002       H2-C1-C5=150.9578       C1-C3-C5=120.5152
       H2-C3-C5=145.8575       C1-H4-C5= 68.5728       H2-H4-C5= 94.2778
       H4-C3-C5=120.1422       C1-C3-H6=146.313        H2-C3-H6=171.6553
       C1-H4-H6= 94.3664       H2-H4-H6=120.0715       H4-C3-H6= 94.3445
       C1-C5-H6=149.8733       C3-C5-H6=120.1349       H4-C5-H6= 94.3323
       H2-C1-C7=179.1011       C1-C3-C7= 90.3803       H2-C3-C7=115.7226
       H4-C1-C7= 85.8272       H4-C3-C7=150.2771       C1-C5-C7= 89.9917
       C3-C5-C7=119.7302       H4-C5-C7=145.5328       C1-C7-H6= 85.865 
       C3-H6-C7= 68.1347       H4-H6-C7= 93.9414       H6-C5-C7=120.1349
       C1-C5-H8=115.7944       C3-C5-H8=145.5328       H4-C5-H8=171.3354
       C3-H6-H8= 93.9414       H4-H6-H8=119.7481       H6-C5-H8= 94.3323
       C1-C7-H8=179.7906       C3-C7-H8=150.2771       C5-C7-H8=120.1422
       H6-C7-H8= 94.3444       H2-C1-C9=149.1688       C3-C1-C9= 89.6197
       H2-C3-C9= 85.7903       H4-C1-C9=115.7595       H4-C3-C9=179.7905
       C1-C5-C9= 60.2533       C3-C5-C9= 89.9917       H4-C5-C9=115.7943
       H6-C3-C9= 85.865        H6-C5-C9=149.8733       C1-C9-C7= 89.6197
       C3-C7-C9= 90.3803       C5-C7-C9=120.5152       H6-C7-C9=146.313 
       C1-C9-H8=115.7595       C3-C9-H8= 85.8272       C5-H8-C9= 68.5728
       H6-H8-C9= 94.3664       H8-C7-C9=119.3426      C1-C7-H10= 85.7903
      C3-C7-H10=115.7226      C5-C7-H10=145.8575      H6-C7-H10=171.6553
      C5-H8-H10= 94.2778      H6-H8-H10=120.0714      H8-C7-H10= 94.0003
      C1-C9-H10=149.1689      C3-C9-H10=179.1012      C5-C9-H10=150.9578
      C7-C9-H10=121.2114      H8-C9-H10= 95.0716      H2-C1-C11=119.9658
      C3-C1-C11=118.8228      C3-H2-C11= 67.5962      H4-C1-C11=144.9626
      H4-H2-C11= 93.3733      H4-C3-C11=149.9078      C5-C1-C11= 89.0764
      H2-C11-C5= 86.6812      C5-C3-C11= 89.9499      H4-C5-C11= 85.6677
      H6-C3-C11=115.7477      H6-C5-C11=180.          C1-C11-C7= 90.982 
      H2-C11-C7=116.8662      C3-C11-C7= 60.37        C5-C7-C11= 89.9499
      H6-C7-C11=115.7477      H8-C5-C11= 85.6677      H8-C7-C11=149.9079
      C1-C11-C9=121.594       H2-C11-C9=147.4782      C3-C11-C9= 90.982 
      C5-C9-C11= 89.0763      C7-C9-C11=118.8227      H8-C9-C11=144.9625
     C1-C11-H10=147.4782     H2-C11-H10=173.3624     C3-C11-H10=116.8662
     C5-C11-H10= 86.6812     C7-H10-C11= 67.5962     H8-H10-C11= 93.3733
     H10-C9-C11=119.9659     H2-C1-Cl12= 85.8597     C3-C1-Cl12=152.9288
     C3-H2-Cl12=105.2435     H4-C1-Cl12=179.0687     H4-H2-Cl12=131.0207
     C5-C1-Cl12=123.1825     C7-C1-Cl12= 93.2414     C1-C9-Cl12= 63.3091
     H2-Cl12-C9= 75.7247     C3-C9-Cl12= 93.2414     C5-C9-Cl12=123.1825
     C7-C9-Cl12=152.9288     H8-C9-Cl12=179.0686    C1-Cl12-H10= 75.7247
    H2-Cl12-H10= 98.0677    C7-H10-Cl12=105.2435    H8-H10-Cl12=131.0206
    H10-C9-Cl12= 85.8597    C1-C11-Cl12=119.203     H2-C11-Cl12= 93.3188
    C3-C11-Cl12=149.815     C5-C11-Cl12=180.        C7-C11-Cl12=149.815 
    C9-C11-Cl12=119.203    H10-C11-Cl12= 93.3188      C1-C9-X13= 84.6949
      C3-C9-X13=114.6272      C5-C9-X13=144.5682      C7-C9-X13=174.3146
      H8-C9-X13=159.5456     C7-H10-X13=122.4899     H8-H10-X13=148.267 
     C9-H10-X13= 89.0437     C1-C11-X13=148.8902     H2-C11-X13=123.006 
     C3-C11-X13=179.5022     C5-C11-X13=150.3129     C7-C11-X13=120.1279
     C9-C11-X13= 89.5159    H10-C11-X13= 63.6316    C1-Cl12-X13=116.6909
    H2-Cl12-X13=139.0338    C9-X13-Cl12= 95.3051   H10-X13-Cl12=121.7875
   C11-Cl12-X13= 90.        H15-O14-H16=104.52  
 Stoichiometry    C6H7ClO
 Framework group  CS[SG(C6H7ClO)]
 Deg. of freedom    27
 Full point group                 CS
 Largest Abelian subgroup         CS      NOp   2
 Largest concise Abelian subgroup C1      NOp   1
                         Standard orientation:                         
 ---------------------------------------------------------------------
 Center     Atomic     Atomic              Coordinates (Angstroms)
 Number     Number      Type              X           Y           Z
 ---------------------------------------------------------------------
    1          6             0       -1.226543   -1.258887    0.000000
    2          1             0       -2.164857   -0.698848    0.000000
    3          6             0       -1.217204   -2.665937    0.000000
    4          1             0       -2.167243   -3.208332    0.000000
    5          6             0        0.000000   -3.372517    0.000000
    6          1             0        0.000000   -4.465950    0.000000
    7          6             0        1.217204   -2.665937    0.000000
    8          1             0        2.167243   -3.208333    0.000000
    9          6             0        1.226543   -1.258886    0.000000
   10          1             0        2.164857   -0.698847    0.000000
   11          6             0        0.000000   -0.573310    0.000000
   12         17             0        0.000000    1.180791    0.000000
   13          8             0        0.000000    6.180791    0.000000
   14          1             0       -0.756950    6.766674    0.000000
   15          1             0        0.756950    6.766674    0.000000
 ---------------------------------------------------------------------
 Rotational constants (GHZ):      5.5092566      0.4421665      0.4093154
 Standard basis: Aug-CC-pVDZ (5D, 7F)
 There are   180 symmetry adapted basis functions of A'  symmetry.
 There are    71 symmetry adapted basis functions of A"  symmetry.
 Integral buffers will be    131072 words long.
 Raffenetti 1 integral format.
 Two-electron integral symmetry is turned on.
   251 basis functions,   461 primitive gaussians,   267 cartesian basis functions
    34 alpha electrons       34 beta electrons
       nuclear repulsion energy       365.9799729021 Hartrees.
 NAtoms=   15 NActive=   15 NUniq=   15 SFac= 7.50D-01 NAtFMM=   80 NAOKFM=F Big=F
 One-electron integrals computed using PRISM.
 NBasis=   251 RedAO= T  NBF=   180    71
 NBsUse=   251 1.00D-06 NBFU=   180    71
 Initial guess read from the read-write file:
 Initial guess orbital symmetries:
       Occupied  (A') (A') (A') (A') (A') (A') (A') (A') (A') (A')
                 (A') (A") (A') (A') (A') (A') (A') (A') (A') (A')
                 (A') (A') (A') (A') (A') (A') (A") (A') (A') (A")
                 (A") (A') (A") (A")
       Virtual   (A') (A') (A') (A') (A') (A') (A') (A") (A") (A')
                 (A") (A') (A') (A") (A') (A') (A") (A') (A') (A')
                 (A') (A") (A') (A') (A") (A') (A") (A') (A") (A')
                 (A') (A") (A') (A') (A') (A') (A') (A') (A') (A')
                 (A') (A") (A') (A') (A') (A") (A') (A') (A') (A')
                 (A") (A') (A') (A") (A') (A') (A') (A") (A") (A")
                 (A') (A') (A") (A') (A") (A') (A') (A') (A') (A')
                 (A') (A") (A") (A') (A') (A") (A') (A') (A') (A')
                 (A') (A') (A") (A') (A') (A') (A") (A') (A") (A')
                 (A') (A") (A') (A') (A') (A') (A") (A') (A') (A')
                 (A") (A') (A") (A") (A") (A') (A") (A') (A") (A')
                 (A') (A") (A') (A') (A") (A') (A") (A") (A') (A")
                 (A') (A') (A') (A") (A") (A') (A') (A') (A") (A")
                 (A') (A") (A') (A") (A') (A") (A') (A') (A') (A')
                 (A') (A') (A') (A") (A') (A') (A') (A') (A') (A')
                 (A') (A") (A") (A") (A") (A') (A') (A') (A') (A")
                 (A') (A") (A') (A') (A') (A') (A") (A') (A") (A')
                 (A') (A") (A') (A") (A") (A') (A") (A') (A") (A')
                 (A') (A') (A") (A') (A') (A") (A') (A') (A') (A')
                 (A') (A") (A") (A') (A') (A') (A') (A') (A') (A')
                 (A') (A') (A') (A') (A') (A') (A') (A') (A') (A')
                 (A") (A") (A') (A') (A') (A') (A')
 Harris functional with IExCor=  205 diagonalized for initial guess.
 ExpMin= 2.97D-02 ExpMax= 1.28D+05 ExpMxC= 1.24D+03 IAcc=3 IRadAn=         5 AccDes= 0.00D+00
 HarFok:  IExCor= 205 AccDes= 0.00D+00 IRadAn=         5 IDoV=1
 ScaDFX=  1.000000  1.000000  1.000000  1.000000
 Requested convergence on RMS density matrix=1.00D-08 within 128 cycles.
 Requested convergence on MAX density matrix=1.00D-06.
 Requested convergence on             energy=1.00D-06.
 No special actions if energy rises.
 SCF Done:  E(RHF) =  -765.689066679     A.U. after   11 cycles
             Convg  =    0.4384D-08             -V/T =  2.0008
             S**2   =   0.0000
 ExpMin= 2.97D-02 ExpMax= 1.28D+05 ExpMxC= 1.24D+03 IAcc=3 IRadAn=         5 AccDes= 0.00D+00
 HarFok:  IExCor= 205 AccDes= 0.00D+00 IRadAn=         5 IDoV=1
 ScaDFX=  1.000000  1.000000  1.000000  1.000000
 Range of M.O.s used for correlation:    13   251
 NBasis=   251 NAE=    34 NBE=    34 NFC=    12 NFV=     0
 NROrb=    239 NOA=    22 NOB=    22 NVA=   217 NVB=   217

 **** Warning!!: The largest alpha MO coefficient is  0.14508107D+03

 Disk-based method using OVN memory for 22 occupieds at a time.
 Estimated scratch disk usage=   383815700 words.
 Actual    scratch disk usage=   379195412 words.
 JobTyp=1 Pass  1:  I=   1 to  22 NPSUse=  1 ParTrn=F ParDer=F DoDerP=F.
 Spin components of T(2) and E(2):
     alpha-alpha T2 =       0.6128631633D-01 E2=     -0.1567526018D+00
     alpha-beta  T2 =       0.3148314925D+00 E2=     -0.8658177809D+00
     beta-beta   T2 =       0.6128631633D-01 E2=     -0.1567526018D+00
 ANorm=    0.1198917898D+01
 E2 =    -0.1179322984D+01 EUMP2 =    -0.76686838966331D+03
 Scan completed.

 Summary of the potential surface scan:
   N      roh         SCF          MP2    
 ----  ---------  -----------  -----------
    1     2.5000   -765.67885   -766.86354
    2     2.6000   -765.68228   -766.86615
    3     2.7000   -765.68464   -766.86781
    4     2.8000   -765.68623   -766.86881
    5     2.9000   -765.68730   -766.86938
    6     3.0000   -765.68800   -766.86965
    7     3.1000   -765.68845   -766.86975
    8     3.2000   -765.68873   -766.86973
    9     3.3000   -765.68891   -766.86965
   10     3.4000   -765.68901   -766.86954
   11     3.5000   -765.68907   -766.86942
   12     3.6000   -765.68910   -766.86930
   13     3.7000   -765.68911   -766.86918
   14     3.8000   -765.68912   -766.86907
   15     3.9000   -765.68911   -766.86897
   16     4.0000   -765.68910   -766.86887
   17     4.1000   -765.68910   -766.86879
   18     4.2000   -765.68909   -766.86872
   19     4.3000   -765.68908   -766.86866
   20     4.4000   -765.68908   -766.86860
   21     4.5000   -765.68907   -766.86855
   22     4.6000   -765.68907   -766.86851
   23     4.7000   -765.68907   -766.86847
   24     4.8000   -765.68907   -766.86844
   25     4.9000   -765.68907   -766.86841
   26     5.0000   -765.68907   -766.86839
 ----  ---------  -----------  -----------
  
 1\1\GINC-N080\Scan\RMP2-FC\Aug-CC-pVDZ\C6H7Cl1O1\FYLIN\13-Apr-2016\1\\
 #MP2/aug-cc-pVDZ scan\\C1H...OHH 90.0 degrees, mp2/aug-cc-pVDZ\\0,1\C,
 0,0.17303,-1.226543,0.\H,0,-0.387009,-2.164857,0.\C,0,1.58008,-1.21720
 4,0.\H,0,2.122475,-2.167243,0.\C,0,2.28666,0.,0.\H,0,3.380093,0.,0.\C,
 0,1.58008,1.217204,0.\H,0,2.122476,2.167243,0.\C,0,0.173029,1.226543,0
 .\H,0,-0.38701,2.164857,0.\C,0,-0.512547,0.,0.\Cl,0,-2.266648,0.,0.\X,
 12,1.,11,90.,9,0.,0\O,12,roh,13,90.,11,180.,0\H,14,0.9572,12,127.74,13
 ,180.,0\H,14,0.9572,12,127.74,13,0.,0\\roh=2.5,s,25,0.1\\Version=AM64L
 -G03RevD.02\HF=-765.6788496,-765.68228,-765.6846364,-765.6862325,-765.
 6872972,-765.687996,-765.6884465,-765.6887311,-765.6889066,-765.689011
 2,-765.6890704,-765.6891009,-765.6891134,-765.6891153,-765.6891111,-76
 5.6891041,-765.6890961,-765.6890884,-765.6890817,-765.6890763,-765.689
 0721,-765.6890691,-765.6890671,-765.6890662,-765.689066,-765.6890667\M
 P2=-766.8635435,-766.8661513,-766.86781,-766.8688143,-766.8693779,-766
 .8696531,-766.8697461,-766.8697294,-766.869651,-766.8695415,-766.86941
 97,-766.8692965,-766.869178,-766.8690672,-766.8689657,-766.868874,-766
 .868792,-766.8687194,-766.8686556,-766.8685998,-766.8685513,-766.86850
 91,-766.8684726,-766.8684409,-766.8684134,-766.8683897\RMSD=4.088e-09,
 6.895e-09,7.984e-09,9.865e-09,4.657e-09,6.246e-09,4.826e-09,3.787e-09,
 3.216e-09,2.216e-09,3.848e-09,9.000e-09,8.787e-09,8.798e-09,8.752e-09,
 8.690e-09,3.692e-09,4.719e-09,2.694e-09,2.378e-09,3.184e-09,2.105e-09,
 2.432e-09,1.747e-09,4.376e-09,4.384e-09\Thermal=0.,0.,0.,0.,0.,0.,0.,0
 .,0.,0.,0.,0.,0.,0.,0.,0.,0.,0.,0.,0.,0.,0.,0.,0.,0.,0.\PG=CS [SG(C6H7
 Cl1O1)]\\@


 CHARLIE BROWN..'I CAN'T GET THAT STUPID KITE IN THE   
 AIR... I CAN'T... I C A N N O T...'                          
 LUCY..'OH COME NOW CHARLIE BROWN...THAT'S NO WAY TO TALK...  
 THE TROUBLE WITH YOU IS YOU DON'T BELIEVE IN YOURSELF... YOU 
 DON'T BELIEVE IN YOUR OWN ABILITIES...  YOU'VE GOT TO SAY TO 
 YOURSELF...'I BELIEVE I CAN FLY THIS KITE.'... GO AHEAD SAY  
 IT....'
 CHARLIE BROWN..'I BELIEVE THAT I CAN FLY THIS STUPID  
 KITE.....I BELIEVE THAT I CAN FLY THIS KITE........          
 I  A C T U A L L Y  B E L I E V E  T H A T  I  C A N ******' 
 LUCY..'I'LL BET YOU TEN-TO-ONE YOU'RE WRONG.......'    SCHULZ
 Job cpu time:  0 days  4 hours 15 minutes 20.3 seconds.
 File lengths (MBytes):  RWF=   3205 Int=      0 D2E=      0 Chk=     21 Scr=      1
 Normal termination of Gaussian 03 at Wed Apr 13 20:30:14 2016.
