 Entering Gaussian System, Link 0=g03
 Initial command:
 /opt/mackerell/apps/gaussian/g03/l1.exe /tmp/fylin/gauss17340/Gau-17343.inp -scrdir=/tmp/fylin/gauss17340/
 Entering Link 1 = /opt/mackerell/apps/gaussian/g03/l1.exe PID=     17345.
  
 Copyright (c) 1988,1990,1992,1993,1995,1998,2003,2004, Gaussian, Inc.
                  All Rights Reserved.
  
 This is the Gaussian(R) 03 program.  It is based on the
 the Gaussian(R) 98 system (copyright 1998, Gaussian, Inc.),
 the Gaussian(R) 94 system (copyright 1995, Gaussian, Inc.),
 the Gaussian 92(TM) system (copyright 1992, Gaussian, Inc.),
 the Gaussian 90(TM) system (copyright 1990, Gaussian, Inc.),
 the Gaussian 88(TM) system (copyright 1988, Gaussian, Inc.),
 the Gaussian 86(TM) system (copyright 1986, Carnegie Mellon
 University), and the Gaussian 82(TM) system (copyright 1983,
 Carnegie Mellon University). Gaussian is a federally registered
 trademark of Gaussian, Inc.
  
 This software contains proprietary and confidential information,
 including trade secrets, belonging to Gaussian, Inc.
  
 This software is provided under written license and may be
 used, copied, transmitted, or stored only in accord with that
 written license.
  
 The following legend is applicable only to US Government
 contracts under FAR:
  
                    RESTRICTED RIGHTS LEGEND
  
 Use, reproduction and disclosure by the US Government is
 subject to restrictions as set forth in subparagraphs (a)
 and (c) of the Commercial Computer Software - Restricted
 Rights clause in FAR 52.227-19.
  
 Gaussian, Inc.
 340 Quinnipiac St., Bldg. 40, Wallingford CT 06492
  
  
 ---------------------------------------------------------------
 Warning -- This program may not be used in any manner that
 competes with the business of Gaussian, Inc. or will provide
 assistance to any competitor of Gaussian, Inc.  The licensee
 of this program is prohibited from giving any competitor of
 Gaussian, Inc. access to this program.  By using this program,
 the user acknowledges that Gaussian, Inc. is engaged in the
 business of creating and licensing software in the field of
 computational chemistry and represents and warrants to the
 licensee that it is not a competitor of Gaussian, Inc. and that
 it will not use this program in any manner prohibited above.
 ---------------------------------------------------------------
  

 Cite this work as:
 Gaussian 03, Revision D.02,
 M. J. Frisch, G. W. Trucks, H. B. Schlegel, G. E. Scuseria, 
 M. A. Robb, J. R. Cheeseman, J. A. Montgomery, Jr., T. Vreven, 
 K. N. Kudin, J. C. Burant, J. M. Millam, S. S. Iyengar, J. Tomasi, 
 V. Barone, B. Mennucci, M. Cossi, G. Scalmani, N. Rega, 
 G. A. Petersson, H. Nakatsuji, M. Hada, M. Ehara, K. Toyota, 
 R. Fukuda, J. Hasegawa, M. Ishida, T. Nakajima, Y. Honda, O. Kitao, 
 H. Nakai, M. Klene, X. Li, J. E. Knox, H. P. Hratchian, J. B. Cross, 
 V. Bakken, C. Adamo, J. Jaramillo, R. Gomperts, R. E. Stratmann, 
 O. Yazyev, A. J. Austin, R. Cammi, C. Pomelli, J. W. Ochterski, 
 P. Y. Ayala, K. Morokuma, G. A. Voth, P. Salvador, J. J. Dannenberg, 
 V. G. Zakrzewski, S. Dapprich, A. D. Daniels, M. C. Strain, 
 O. Farkas, D. K. Malick, A. D. Rabuck, K. Raghavachari, 
 J. B. Foresman, J. V. Ortiz, Q. Cui, A. G. Baboul, S. Clifford, 
 J. Cioslowski, B. B. Stefanov, G. Liu, A. Liashenko, P. Piskorz, 
 I. Komaromi, R. L. Martin, D. J. Fox, T. Keith, M. A. Al-Laham, 
 C. Y. Peng, A. Nanayakkara, M. Challacombe, P. M. W. Gill, 
 B. Johnson, W. Chen, M. W. Wong, C. Gonzalez, and J. A. Pople, 
 Gaussian, Inc., Wallingford CT, 2004.
 
 ******************************************
 Gaussian 03:  AM64L-G03RevD.02  1-Mar-2006
                20-Mar-2017 
 ******************************************
 %CHK=chlb_c4c5c6cl
 %MEM=6600MB
 %NPROCSHARED=8
 Will use up to    8 processors via shared memory.
 -----------------------------------------------------------
 # MP2/aug-cc-pVDZ opt=modredundant nosymm geom=connectivity
 -----------------------------------------------------------
 1/18=120,38=1,57=2/1,3;
 2/9=110,15=1,17=6,18=5,40=1/2;
 3/5=16,7=10,11=9,16=1,25=1,30=1/1,2,3;
 4//1;
 5/5=2,38=5/2;
 8/6=4,10=1/1;
 9/15=2,16=-3/6;
 10/5=1,31=1/2;
 6/7=2,8=2,9=2,10=2/1;
 7/12=2,30=1/1,2,3,16;
 1/18=20/3(3);
 2/9=110,15=1/2;
 6/7=2,8=2,9=2,10=2/1;
 99//99;
 2/9=110,15=1/2;
 3/5=16,7=10,11=9,16=1,25=1,30=1/1,2,3;
 4/5=5,16=3/1;
 5/5=2,38=5/2;
 8/6=4,10=1/1;
 9/15=2,16=-3/6;
 10/5=1,31=1/2;
 7/12=2,30=1/1,2,3,16;
 1/18=20/3(-8);
 2/9=110,15=1/2;
 6/7=2,8=2,9=2,10=2/1;
 99//99;
 ---------------------------------
 CHLB OPTIMIZED AT MP2/aug-cc-pVDZ
 ---------------------------------
 Symbolic Z-matrix:
 Charge =  0 Multiplicity = 1
 C                    -0.01639  -0.03576   0. 
 H                    -0.57642  -0.97408   0. 
 C                     1.39066  -0.02642   0. 
 H                     1.93306  -0.97646   0. 
 C                     2.09724   1.19079   0. 
 H                     3.19067   1.19079   0. 
 C                     1.39066   2.40799   0. 
 H                     1.93305   3.35803   0. 
 C                    -0.01639   2.41733   0. 
 H                    -0.57643   3.35564   0. 
 C                    -0.70197   1.19078   0. 
 Cl                   -2.45607   1.19078   0. 
 
 The following ModRedundant input section has been read:
 D   10    9   11   12 60.000 S   8 -15.00                                     
 Iteration  1 RMS(Cart)=  0.01434666 RMS(Int)=  0.13119284
 Iteration  2 RMS(Cart)=  0.00659029 RMS(Int)=  0.12666236
 Iteration  3 RMS(Cart)=  0.00301882 RMS(Int)=  0.12472746
 Iteration  4 RMS(Cart)=  0.00139105 RMS(Int)=  0.12386809
 Iteration  5 RMS(Cart)=  0.00064141 RMS(Int)=  0.12347867
 Iteration  6 RMS(Cart)=  0.00029588 RMS(Int)=  0.12330050
 Iteration  7 RMS(Cart)=  0.00013651 RMS(Int)=  0.12321861
 Iteration  8 RMS(Cart)=  0.00006298 RMS(Int)=  0.12318090
 Iteration  9 RMS(Cart)=  0.00002906 RMS(Int)=  0.12316351
 Iteration 10 RMS(Cart)=  0.00001341 RMS(Int)=  0.12315549
 Iteration 11 RMS(Cart)=  0.00000619 RMS(Int)=  0.12315179
 Iteration 12 RMS(Cart)=  0.00000286 RMS(Int)=  0.12315008
 Iteration 13 RMS(Cart)=  0.00000132 RMS(Int)=  0.12314929
 Iteration 14 RMS(Cart)=  0.00000061 RMS(Int)=  0.12314893
 Iteration  1 RMS(Cart)=  0.01449565 RMS(Int)=  0.10937393
 Iteration  2 RMS(Cart)=  0.01473227 RMS(Int)=  0.09998533
 Iteration  3 RMS(Cart)=  0.01504114 RMS(Int)=  0.09312180
 Iteration  4 RMS(Cart)=  0.01540250 RMS(Int)=  0.08939289
 Iteration  5 RMS(Cart)=  0.01579584 RMS(Int)=  0.08924019
 Iteration  6 RMS(Cart)=  0.01620293 RMS(Int)=  0.09274276
 Iteration  7 RMS(Cart)=  0.01660916 RMS(Int)=  0.09958176
 Iteration  8 RMS(Cart)=  0.01700399 RMS(Int)=  0.10919595
 Iteration  9 RMS(Cart)=  0.01196182 RMS(Int)=  0.11710492
 Iteration 10 RMS(Cart)=  0.00603323 RMS(Int)=  0.12136352
 Iteration 11 RMS(Cart)=  0.00298922 RMS(Int)=  0.12353041
 Iteration 12 RMS(Cart)=  0.00146848 RMS(Int)=  0.12460766
 Iteration 13 RMS(Cart)=  0.00071845 RMS(Int)=  0.12513765
 Iteration 14 RMS(Cart)=  0.00035081 RMS(Int)=  0.12539712
 Iteration 15 RMS(Cart)=  0.00017113 RMS(Int)=  0.12552385
 Iteration 16 RMS(Cart)=  0.00008344 RMS(Int)=  0.12558569
 Iteration 17 RMS(Cart)=  0.00004067 RMS(Int)=  0.12561584
 Iteration 18 RMS(Cart)=  0.00001983 RMS(Int)=  0.12563053
 Iteration 19 RMS(Cart)=  0.00000966 RMS(Int)=  0.12563770
 Iteration 20 RMS(Cart)=  0.00000471 RMS(Int)=  0.12564119
 Iteration 21 RMS(Cart)=  0.00000230 RMS(Int)=  0.12564289
 Iteration 22 RMS(Cart)=  0.00000112 RMS(Int)=  0.12564372
 Iteration 23 RMS(Cart)=  0.00000055 RMS(Int)=  0.12564413

 GradGradGradGradGradGradGradGradGradGradGradGradGradGradGradGradGradGrad
 Berny optimization.
 Initialization pass.
                           ----------------------------
                           !    Initial Parameters    !
                           ! (Angstroms and Degrees)  !
 --------------------------                            --------------------------
 ! Name  Definition              Value          Derivative Info.                !
 --------------------------------------------------------------------------------
 ! R1    R(1,2)                  1.0927         estimate D2E/DX2                !
 ! R2    R(1,3)                  1.4032         estimate D2E/DX2                !
 ! R3    R(1,11)                 1.4107         estimate D2E/DX2                !
 ! R4    R(3,4)                  1.094          estimate D2E/DX2                !
 ! R5    R(3,5)                  1.3994         estimate D2E/DX2                !
 ! R6    R(5,6)                  1.0935         estimate D2E/DX2                !
 ! R7    R(5,7)                  1.4034         estimate D2E/DX2                !
 ! R8    R(7,8)                  1.094          estimate D2E/DX2                !
 ! R9    R(7,9)                  1.4125         estimate D2E/DX2                !
 ! R10   R(9,10)                 1.0993         estimate D2E/DX2                !
 ! R11   R(9,11)                 1.4117         estimate D2E/DX2                !
 ! R12   R(11,12)                1.7621         estimate D2E/DX2                !
 ! A1    A(2,1,3)              120.4327         estimate D2E/DX2                !
 ! A2    A(2,1,11)             119.4713         estimate D2E/DX2                !
 ! A3    A(3,1,11)             120.0364         estimate D2E/DX2                !
 ! A4    A(1,3,4)              119.5788         estimate D2E/DX2                !
 ! A5    A(1,3,5)              120.1132         estimate D2E/DX2                !
 ! A6    A(4,3,5)              120.2935         estimate D2E/DX2                !
 ! A7    A(3,5,6)              120.3029         estimate D2E/DX2                !
 ! A8    A(3,5,7)              119.3037         estimate D2E/DX2                !
 ! A9    A(6,5,7)              120.377          estimate D2E/DX2                !
 ! A10   A(5,7,8)              119.376          estimate D2E/DX2                !
 ! A11   A(5,7,9)              121.7233         estimate D2E/DX2                !
 ! A12   A(8,7,9)              118.8426         estimate D2E/DX2                !
 ! A13   A(7,9,10)             110.817          estimate D2E/DX2                !
 ! A14   A(7,9,11)             117.6695         estimate D2E/DX2                !
 ! A15   A(10,9,11)            122.7975         estimate D2E/DX2                !
 ! A16   A(1,11,9)             120.3316         estimate D2E/DX2                !
 ! A17   A(1,11,12)            109.1726         estimate D2E/DX2                !
 ! A18   A(9,11,12)            121.908          estimate D2E/DX2                !
 ! D1    D(2,1,3,4)             -3.933          estimate D2E/DX2                !
 ! D2    D(2,1,3,5)            174.6889         estimate D2E/DX2                !
 ! D3    D(11,1,3,4)           178.8893         estimate D2E/DX2                !
 ! D4    D(11,1,3,5)            -2.4888         estimate D2E/DX2                !
 ! D5    D(2,1,11,9)          -168.8241         estimate D2E/DX2                !
 ! D6    D(2,1,11,12)          -20.4183         estimate D2E/DX2                !
 ! D7    D(3,1,11,9)             8.3807         estimate D2E/DX2                !
 ! D8    D(3,1,11,12)          156.7865         estimate D2E/DX2                !
 ! D9    D(1,3,5,6)            178.145          estimate D2E/DX2                !
 ! D10   D(1,3,5,7)             -0.3916         estimate D2E/DX2                !
 ! D11   D(4,3,5,6)             -3.2431         estimate D2E/DX2                !
 ! D12   D(4,3,5,7)            178.2204         estimate D2E/DX2                !
 ! D13   D(3,5,7,8)            174.5896         estimate D2E/DX2                !
 ! D14   D(3,5,7,9)             -2.604          estimate D2E/DX2                !
 ! D15   D(6,5,7,8)             -3.9459         estimate D2E/DX2                !
 ! D16   D(6,5,7,9)            178.8605         estimate D2E/DX2                !
 ! D17   D(5,7,9,10)           156.862          estimate D2E/DX2                !
 ! D18   D(5,7,9,11)             8.2475         estimate D2E/DX2                !
 ! D19   D(8,7,9,10)           -20.3461         estimate D2E/DX2                !
 ! D20   D(8,7,9,11)          -168.9606         estimate D2E/DX2                !
 ! D21   D(7,9,11,1)           -11.0446         estimate D2E/DX2                !
 ! D22   D(7,9,11,12)         -155.3883         estimate D2E/DX2                !
 ! D23   D(10,9,11,1)         -155.6565         estimate D2E/DX2                !
 ! D24   D(10,9,11,12)          59.9998         Scan                            !
 --------------------------------------------------------------------------------
 Trust Radius=3.00D-01 FncErr=1.00D-07 GrdErr=1.00D-07
 Number of optimizations in scan=   9
 Number of steps in this run=  64 maximum allowed number of steps= 100.
 GradGradGradGradGradGradGradGradGradGradGradGradGradGradGradGradGradGrad

                          Input orientation:                          
 ---------------------------------------------------------------------
 Center     Atomic     Atomic              Coordinates (Angstroms)
 Number     Number      Type              X           Y           Z
 ---------------------------------------------------------------------
    1          6             0       -0.035618    0.001518    0.113531
    2          1             0       -0.598962   -0.934692    0.097699
    3          6             0        1.364965   -0.010195    0.028211
    4          1             0        1.896930   -0.965969    0.010570
    5          6             0        2.072918    1.193514   -0.062862
    6          1             0        3.165788    1.189464   -0.098997
    7          6             0        1.366916    2.406290   -0.076077
    8          1             0        1.920460    3.349711   -0.057275
    9          6             0       -0.044876    2.444087   -0.054296
   10          1             0       -0.403935    3.407041    0.335892
   11          6             0       -0.729958    1.228632    0.160592
   12         17             0       -2.382949    0.979998   -0.396987
 ---------------------------------------------------------------------
                    Distance matrix (angstroms):
                    1          2          3          4          5
     1  C    0.000000
     2  H    1.092747   0.000000
     3  C    1.403228   2.171757   0.000000
     4  H    2.163648   2.497608   1.093984   0.000000
     5  C    2.428558   3.419646   1.399432   2.167887   0.000000
     6  H    3.421313   4.327132   2.167563   2.503577   1.093475
     7  C    2.790337   3.880340   2.418736   3.414756   1.403367
     8  H    3.881471   4.972687   3.406590   4.316278   2.161588
     9  C    2.448346   3.427282   2.831601   3.924704   2.459484
    10  H    3.432592   4.352633   3.860204   4.952073   3.345670
    11  C    1.410720   2.168198   2.437400   3.426269   2.811988
    12  Cl   2.593842   2.663337   3.899761   4.719137   4.473475
                    6          7          8          9         10
     6  H    0.000000
     7  C    2.171896   0.000000
     8  H    2.493842   1.093987   0.000000
     9  C    3.447382   1.412467   2.163958   0.000000
    10  H    4.224890   2.075364   2.358109   1.099295   0.000000
    11  C    3.904582   2.416562   3.401641   1.411682   2.209635
    12  Cl   5.560680   4.024771   4.924457   2.779852   3.216232
                   11         12
    11  C    0.000000
    12  Cl   1.762128   0.000000
 Symmetry turned off by external request.
 Stoichiometry    C6H5Cl
 Framework group  C1[X(C6H5Cl)]
 Deg. of freedom    30
 Full point group                 C1
 Rotational constants (GHZ):      5.4533722      1.5910857      1.2484528
 Standard basis: Aug-CC-pVDZ (5D, 7F)
 Integral buffers will be    131072 words long.
 Raffenetti 1 integral format.
 Two-electron integral symmetry is turned off.
   210 basis functions,   396 primitive gaussians,   224 cartesian basis functions
    29 alpha electrons       29 beta electrons
       nuclear repulsion energy       314.3622665794 Hartrees.
 NAtoms=   12 NActive=   12 NUniq=   12 SFac= 7.50D-01 NAtFMM=   80 NAOKFM=F Big=F
 One-electron integrals computed using PRISM.
 NBasis=   210 RedAO= T  NBF=   210
 NBsUse=   210 1.00D-06 NBFU=   210
 Harris functional with IExCor=  205 diagonalized for initial guess.
 ExpMin= 2.97D-02 ExpMax= 1.28D+05 ExpMxC= 1.24D+03 IAcc=3 IRadAn=         5 AccDes= 0.00D+00
 HarFok:  IExCor= 205 AccDes= 0.00D+00 IRadAn=         5 IDoV=1
 ScaDFX=  1.000000  1.000000  1.000000  1.000000
 Requested convergence on RMS density matrix=1.00D-08 within 128 cycles.
 Requested convergence on MAX density matrix=1.00D-06.
 Requested convergence on             energy=1.00D-06.
 No special actions if energy rises.
 Keep R1 integrals in memory in canonical form, NReq=   324243586.
 SCF Done:  E(RHF) =  -689.614506460     A.U. after   16 cycles
             Convg  =    0.3236D-08             -V/T =  2.0006
             S**2   =   0.0000
 ExpMin= 2.97D-02 ExpMax= 1.28D+05 ExpMxC= 1.24D+03 IAcc=3 IRadAn=         5 AccDes= 0.00D+00
 HarFok:  IExCor= 205 AccDes= 0.00D+00 IRadAn=         5 IDoV=1
 ScaDFX=  1.000000  1.000000  1.000000  1.000000
 Range of M.O.s used for correlation:    12   210
 NBasis=   210 NAE=    29 NBE=    29 NFC=    11 NFV=     0
 NROrb=    199 NOA=    18 NOB=    18 NVA=   181 NVB=   181

 **** Warning!!: The largest alpha MO coefficient is  0.94035790D+02

 Fully direct method using O(ONN) memory.
 JobTyp=1 Pass  1:  I=  12 to  14 NPSUse=  8 ParTrn=T ParDer=T DoDerP=T.
 JobTyp=1 Pass  2:  I=  15 to  17 NPSUse=  8 ParTrn=T ParDer=T DoDerP=T.
 JobTyp=1 Pass  3:  I=  18 to  20 NPSUse=  8 ParTrn=T ParDer=T DoDerP=T.
 JobTyp=1 Pass  4:  I=  21 to  23 NPSUse=  8 ParTrn=T ParDer=T DoDerP=T.
 JobTyp=1 Pass  5:  I=  24 to  26 NPSUse=  8 ParTrn=T ParDer=T DoDerP=T.
 JobTyp=1 Pass  6:  I=  27 to  29 NPSUse=  8 ParTrn=T ParDer=T DoDerP=T.
 Spin components of T(2) and E(2):
     alpha-alpha T2 =       0.5414412281D-01 E2=     -0.1295885746D+00
     alpha-beta  T2 =       0.2749035260D+00 E2=     -0.7059051999D+00
     beta-beta   T2 =       0.5414412281D-01 E2=     -0.1295885746D+00
 ANorm=    0.1176091736D+01
 E2 =    -0.9650823491D+00 EUMP2 =    -0.69057958880897D+03
 DoAtom=TTTTTTTTTTTT
          Differentiating once with respect to electric field.
                with respect to dipole field.
          Differentiating once with respect to nuclear coordinates.
          Store integrals in memory, NReq=   318354204.
          There are   1 degrees of freedom in the 1st order CPHF.
     1 vectors were produced by pass  0.
 AX will form   1 AO Fock derivatives at one time.
     1 vectors were produced by pass  1.
     1 vectors were produced by pass  2.
     1 vectors were produced by pass  3.
     1 vectors were produced by pass  4.
     1 vectors were produced by pass  5.
     1 vectors were produced by pass  6.
     1 vectors were produced by pass  7.
     1 vectors were produced by pass  8.
     1 vectors were produced by pass  9.
     1 vectors were produced by pass 10.
     1 vectors were produced by pass 11.
     1 vectors were produced by pass 12.
     1 vectors were produced by pass 13.
     1 vectors were produced by pass 14.
     1 vectors were produced by pass 15.
 Inv2:  IOpt= 1 Iter= 1 AM= 5.98D-16 Conv= 1.00D-12.
 Inverted reduced A of dimension   16 with in-core refinement.
 End of Minotr Frequency-dependent properties file   721 does not exist.

 **********************************************************************

            Population analysis using the SCF density.

 **********************************************************************

 Alpha  occ. eigenvalues -- -104.83537 -11.31737 -11.26619 -11.26457 -11.26405
 Alpha  occ. eigenvalues --  -11.26341 -11.26103 -10.56128  -8.02902  -8.02572
 Alpha  occ. eigenvalues --   -8.02558  -1.18851  -1.11695  -1.03312  -0.99596
 Alpha  occ. eigenvalues --   -0.84397  -0.82309  -0.70714  -0.65044  -0.64515
 Alpha  occ. eigenvalues --   -0.60141  -0.58350  -0.54406  -0.51567  -0.50399
 Alpha  occ. eigenvalues --   -0.46281  -0.44998  -0.35141  -0.33531
 Alpha virt. eigenvalues --    0.03255   0.04002   0.04648   0.05930   0.06288
 Alpha virt. eigenvalues --    0.07109   0.09036   0.09641   0.10434   0.12181
 Alpha virt. eigenvalues --    0.13113   0.13605   0.14122   0.14352   0.14837
 Alpha virt. eigenvalues --    0.15367   0.15863   0.16306   0.16963   0.17629
 Alpha virt. eigenvalues --    0.17884   0.18573   0.19065   0.19334   0.19738
 Alpha virt. eigenvalues --    0.20141   0.21451   0.22216   0.24821   0.25775
 Alpha virt. eigenvalues --    0.28359   0.29288   0.29703   0.29979   0.31881
 Alpha virt. eigenvalues --    0.32543   0.33148   0.33742   0.35636   0.35815
 Alpha virt. eigenvalues --    0.37662   0.38640   0.39090   0.40047   0.41213
 Alpha virt. eigenvalues --    0.41681   0.42821   0.43306   0.44028   0.47892
 Alpha virt. eigenvalues --    0.49364   0.49885   0.51509   0.53128   0.54704
 Alpha virt. eigenvalues --    0.55039   0.55885   0.56420   0.57214   0.57878
 Alpha virt. eigenvalues --    0.58852   0.61096   0.61747   0.63030   0.63294
 Alpha virt. eigenvalues --    0.64732   0.65684   0.67294   0.67586   0.68451
 Alpha virt. eigenvalues --    0.68758   0.70405   0.71451   0.73487   0.73727
 Alpha virt. eigenvalues --    0.74316   0.76179   0.77007   0.78195   0.80698
 Alpha virt. eigenvalues --    0.82787   0.83156   0.84627   0.85412   0.86649
 Alpha virt. eigenvalues --    0.87002   0.88215   0.90146   0.91040   0.91419
 Alpha virt. eigenvalues --    0.92313   0.93927   0.94722   0.96044   0.97233
 Alpha virt. eigenvalues --    0.99459   1.00329   1.02385   1.03965   1.06438
 Alpha virt. eigenvalues --    1.07136   1.09860   1.12448   1.17911   1.19289
 Alpha virt. eigenvalues --    1.22059   1.24248   1.31119   1.33727   1.38770
 Alpha virt. eigenvalues --    1.42079   1.43684   1.45277   1.46376   1.47530
 Alpha virt. eigenvalues --    1.49322   1.50737   1.53228   1.54460   1.54940
 Alpha virt. eigenvalues --    1.58410   1.60059   1.60589   1.61424   1.62540
 Alpha virt. eigenvalues --    1.63670   1.64574   1.67122   1.68048   1.69156
 Alpha virt. eigenvalues --    1.71552   1.72991   1.74944   1.75579   1.79447
 Alpha virt. eigenvalues --    1.83551   1.85760   1.88003   1.89400   1.91609
 Alpha virt. eigenvalues --    1.93605   1.95592   1.96745   1.98016   2.00894
 Alpha virt. eigenvalues --    2.06923   2.07302   2.09870   2.10414   2.14818
 Alpha virt. eigenvalues --    2.16443   2.17515   2.19196   2.21020   2.23110
 Alpha virt. eigenvalues --    2.26658   2.30616   2.31147   2.34182   2.36948
 Alpha virt. eigenvalues --    2.38409   2.41785   2.44339   2.56875   2.58235
 Alpha virt. eigenvalues --    2.66009   2.67469   2.73085   2.75661   2.84365
 Alpha virt. eigenvalues --    2.87496   2.92670   3.00139   3.06429   3.07680
 Alpha virt. eigenvalues --    3.14292   3.20056   3.29122   3.47616   3.70906
 Alpha virt. eigenvalues --    4.31942
          Condensed to atoms (all electrons):
              1          2          3          4          5          6
     1  C    6.310494  -0.178236  -0.744802   0.214152   0.868002  -0.089872
     2  H   -0.178236   1.630707   0.198554  -0.085816  -0.052213  -0.004932
     3  C   -0.744802   0.198554   6.683158  -0.268840  -0.895074   0.213147
     4  H    0.214152  -0.085816  -0.268840   1.547909   0.188028  -0.067603
     5  C    0.868002  -0.052213  -0.895074   0.188028   6.938115  -0.289571
     6  H   -0.089872  -0.004932   0.213147  -0.067603  -0.289571   1.533119
     7  C   -1.017596   0.070363   0.845613  -0.119818  -0.820541   0.196018
     8  H    0.079346   0.003612  -0.103540  -0.006675   0.145535  -0.070396
     9  C    0.586982  -0.041386  -0.881916   0.069258   0.525117  -0.078502
    10  H   -0.013660  -0.003532   0.039171   0.002355  -0.013673  -0.001359
    11  C   -0.674374  -0.111331   0.462701  -0.085275  -0.937031   0.059439
    12  Cl  -0.214935  -0.100700  -0.003046   0.001673   0.017182  -0.000283
              7          8          9         10         11         12
     1  C   -1.017596   0.079346   0.586982  -0.013660  -0.674374  -0.214935
     2  H    0.070363   0.003612  -0.041386  -0.003532  -0.111331  -0.100700
     3  C    0.845613  -0.103540  -0.881916   0.039171   0.462701  -0.003046
     4  H   -0.119818  -0.006675   0.069258   0.002355  -0.085275   0.001673
     5  C   -0.820541   0.145535   0.525117  -0.013673  -0.937031   0.017182
     6  H    0.196018  -0.070396  -0.078502  -0.001359   0.059439  -0.000283
     7  C    6.134922  -0.148609  -0.422776   0.207591   0.587888   0.015027
     8  H   -0.148609   1.587590   0.105628  -0.112212  -0.068993   0.000134
     9  C   -0.422776   0.105628   6.095216  -0.065953  -0.292853  -0.250535
    10  H    0.207591  -0.112212  -0.065953   1.284808  -0.136183  -0.016752
    11  C    0.587888  -0.068993  -0.292853  -0.136183   7.655881   0.444076
    12  Cl   0.015027   0.000134  -0.250535  -0.016752   0.444076  17.287678
 Mulliken atomic charges:
              1
     1  C    0.874498
     2  H   -0.325090
     3  C    0.454875
     4  H   -0.389350
     5  C    0.326124
     6  H   -0.399206
     7  C    0.471919
     8  H   -0.411422
     9  C    0.651719
    10  H   -0.170601
    11  C   -0.903946
    12  Cl  -0.179519
 Sum of Mulliken charges=   0.00000
 Atomic charges with hydrogens summed into heavy atoms:
              1
     1  C    0.549407
     2  H    0.000000
     3  C    0.065525
     4  H    0.000000
     5  C   -0.073082
     6  H    0.000000
     7  C    0.060496
     8  H    0.000000
     9  C    0.481119
    10  H    0.000000
    11  C   -0.903946
    12  Cl  -0.179519
 Sum of Mulliken charges=   0.00000
 Electronic spatial extent (au):  <R**2>=  1175.9404
 Charge=     0.0000 electrons
 Dipole moment (field-independent basis, Debye):
    X=     2.3924    Y=    -0.0336    Z=     0.3894  Tot=     2.4241
 Quadrupole moment (field-independent basis, Debye-Ang):
   XX=   -48.0061   YY=   -42.6213   ZZ=   -52.7597
   XY=     3.0882   XZ=    -0.4895   YZ=     1.3229
 Traceless Quadrupole moment (field-independent basis, Debye-Ang):
   XX=    -0.2104   YY=     5.1744   ZZ=    -4.9640
   XY=     3.0882   XZ=    -0.4895   YZ=     1.3229
 Octapole moment (field-independent basis, Debye-Ang**2):
  XXX=    35.7917  YYY=  -146.6271  ZZZ=    12.8906  XYY=    13.9126
  XXY=   -56.0994  XXZ=     2.5364  XZZ=     1.6198  YZZ=   -60.7766
  YYZ=     8.9126  XYZ=    -1.2519
 Hexadecapole moment (field-independent basis, Debye-Ang**3):
 XXXX=  -796.9957 YYYY=  -619.8671 ZZZZ=   -79.3165 XXXY=    26.9865
 XXXZ=   -22.9208 YYYX=    22.4927 YYYZ=    33.2214 ZZZX=   -29.5170
 ZZZY=    18.2440 XXYY=  -247.6327 XXZZ=  -160.6932 YYZZ=  -142.4993
 XXYZ=     5.3083 YYXZ=   -13.6927 ZZXY=    -4.6633
 N-N= 3.143622665794D+02 E-N=-2.258228267660D+03  KE= 6.892068463065D+02
 -------------------------------------------------------------------
 Center     Atomic                   Forces (Hartrees/Bohr)
 Number     Number              X              Y              Z
 -------------------------------------------------------------------
    1          6           0.008363476    0.000665587    0.003022200
    2          1          -0.000230343    0.000421656    0.001144270
    3          6           0.000368254   -0.005987185    0.005019392
    4          1           0.000153075   -0.000263462    0.000387258
    5          6           0.004965645    0.001960914   -0.003715982
    6          1           0.000202505    0.000079535   -0.001180774
    7          6           0.001151582   -0.001956090    0.003490243
    8          1          -0.000734878    0.000651976   -0.001752931
    9          6           0.013696734    0.010534497    0.040589610
   10          1          -0.015993032    0.000040807   -0.019669264
   11          6           0.003187316   -0.020253897   -0.040563668
   12         17          -0.015130333    0.014105662    0.013229645
 -------------------------------------------------------------------
 Cartesian Forces:  Max     0.040589610 RMS     0.012321019

 GradGradGradGradGradGradGradGradGradGradGradGradGradGradGradGradGradGrad
 Berny optimization.
 Internal  Forces:  Max     0.029004021 RMS     0.006607775
 Search for a local minimum.
 Step number   1 out of a maximum of  64 on scan point     1 out of     9
 All quantities printed in internal units (Hartrees-Bohrs-Radians)
 Second derivative matrix not updated -- first step.
     Eigenvalues ---    0.01980   0.01993   0.02006   0.02056   0.02064
     Eigenvalues ---    0.02077   0.02200   0.02746   0.13180   0.15980
     Eigenvalues ---    0.15984   0.15995   0.15997   0.20939   0.21999
     Eigenvalues ---    0.22157   0.23419   0.29343   0.33760   0.34356
     Eigenvalues ---    0.34356   0.34414   0.34497   0.40375   0.40744
     Eigenvalues ---    0.43700   0.44507   0.44686   0.453911000.00000
     Eigenvalues --- 1000.000001000.000001000.000001000.000001000.00000
     Eigenvalues --- 1000.000001000.000001000.000001000.000001000.00000
     Eigenvalues --- 1000.000001000.000001000.000001000.000001000.00000
     Eigenvalues --- 1000.000001000.000001000.000001000.000001000.00000
     Eigenvalues --- 1000.000001000.000001000.000001000.00000
 RFO step:  Lambda=-5.60474247D-03.
 Linear search not attempted -- first point.
 Maximum step size (   0.300) exceeded in Quadratic search.
    -- Step size scaled by   0.902
 Iteration  1 RMS(Cart)=  0.04745665 RMS(Int)=  0.00175034
 Iteration  2 RMS(Cart)=  0.00189387 RMS(Int)=  0.00084873
 Iteration  3 RMS(Cart)=  0.00000260 RMS(Int)=  0.00084873
 Iteration  4 RMS(Cart)=  0.00000000 RMS(Int)=  0.00084873
 Iteration  1 RMS(Cart)=  0.00012358 RMS(Int)=  0.00013446
 Iteration  2 RMS(Cart)=  0.00006198 RMS(Int)=  0.00015034
 Iteration  3 RMS(Cart)=  0.00003109 RMS(Int)=  0.00016815
 Iteration  4 RMS(Cart)=  0.00001560 RMS(Int)=  0.00017882
 Iteration  5 RMS(Cart)=  0.00000782 RMS(Int)=  0.00018452
 Iteration  6 RMS(Cart)=  0.00000392 RMS(Int)=  0.00018747
 Iteration  7 RMS(Cart)=  0.00000197 RMS(Int)=  0.00018896
 Iteration  8 RMS(Cart)=  0.00000099 RMS(Int)=  0.00018971
 Variable       Old X    -DE/DX   Delta X   Delta X   Delta X     New X
                                 (Linear)    (Quad)   (Total)
    R1        2.06499  -0.00026   0.00000  -0.00067  -0.00067   2.06433
    R2        2.65172   0.00298   0.00000   0.00495   0.00500   2.65672
    R3        2.66587   0.00555   0.00000   0.01118   0.01130   2.67718
    R4        2.06733   0.00030   0.00000   0.00077   0.00077   2.06810
    R5        2.64454   0.00570   0.00000   0.01036   0.01024   2.65478
    R6        2.06637   0.00024   0.00000   0.00062   0.00062   2.06699
    R7        2.65198   0.00372   0.00000   0.00754   0.00743   2.65941
    R8        2.06734   0.00016   0.00000   0.00041   0.00041   2.06775
    R9        2.66917   0.00307   0.00000   0.00733   0.00727   2.67645
   R10        2.07737  -0.00172   0.00000  -0.00453  -0.00453   2.07284
   R11        2.66769   0.00277   0.00000   0.00623   0.00634   2.67404
   R12        3.32994   0.00802   0.00000   0.02419   0.02419   3.35413
    A1        2.10195  -0.00041   0.00000  -0.00107  -0.00075   2.10119
    A2        2.08517  -0.00138   0.00000  -0.00613  -0.00587   2.07930
    A3        2.09503   0.00180   0.00000   0.00772   0.00709   2.10212
    A4        2.08704   0.00049   0.00000   0.00210   0.00217   2.08922
    A5        2.09637  -0.00113   0.00000  -0.00562  -0.00666   2.08971
    A6        2.09952   0.00061   0.00000   0.00256   0.00265   2.10217
    A7        2.09968   0.00055   0.00000   0.00128   0.00146   2.10114
    A8        2.08224  -0.00080   0.00000  -0.00200  -0.00328   2.07896
    A9        2.10098   0.00022   0.00000  -0.00030  -0.00010   2.10087
   A10        2.08350   0.00015   0.00000  -0.00045  -0.00002   2.08349
   A11        2.12447   0.00163   0.00000   0.01184   0.01077   2.13525
   A12        2.07419  -0.00176   0.00000  -0.01045  -0.01003   2.06417
   A13        1.93412   0.00978   0.00000   0.01198   0.01267   1.94679
   A14        2.05372   0.00037   0.00000  -0.00598  -0.00658   2.04714
   A15        2.14322  -0.00448   0.00000  -0.02587  -0.02606   2.11716
   A16        2.10018  -0.00076   0.00000   0.00726   0.00531   2.10549
   A17        1.90542   0.02259   0.00000   0.07975   0.07958   1.98500
   A18        2.12770  -0.01351   0.00000  -0.03117  -0.03396   2.09374
    D1       -0.06864   0.00120   0.00000   0.02362   0.02396  -0.04468
    D2        3.04890  -0.00037   0.00000  -0.02191  -0.02111   3.02779
    D3        3.12221   0.00096   0.00000   0.01135   0.01125   3.13345
    D4       -0.04344  -0.00061   0.00000  -0.03419  -0.03382  -0.07726
    D5       -2.94654  -0.00557   0.00000  -0.07769  -0.07904  -3.02558
    D6       -0.35637   0.00436   0.00000   0.00623   0.00874  -0.34762
    D7        0.14627  -0.00530   0.00000  -0.06539  -0.06634   0.07993
    D8        2.73644   0.00462   0.00000   0.01852   0.02144   2.75788
    D9        3.10922   0.00241   0.00000   0.05185   0.05150  -3.12246
   D10       -0.00683   0.00360   0.00000   0.09739   0.09705   0.09022
   D11       -0.05660   0.00082   0.00000   0.00598   0.00609  -0.05051
   D12        3.11053   0.00201   0.00000   0.05152   0.05164  -3.12102
   D13        3.04716  -0.00037   0.00000  -0.04095  -0.04079   3.00637
   D14       -0.04545  -0.00086   0.00000  -0.06334  -0.06365  -0.10910
   D15       -0.06887   0.00082   0.00000   0.00460   0.00472  -0.06414
   D16        3.12171   0.00033   0.00000  -0.01779  -0.01813   3.10357
   D17        2.73776   0.00305   0.00000  -0.07544  -0.07466   2.66309
   D18        0.14395  -0.00474   0.00000  -0.03502  -0.03484   0.10911
   D19       -0.35511   0.00251   0.00000  -0.09798  -0.09754  -0.45265
   D20       -2.94892  -0.00528   0.00000  -0.05757  -0.05772  -3.00664
   D21       -0.19276   0.00800   0.00000   0.09970   0.09991  -0.09286
   D22       -2.71204  -0.01525   0.00000  -0.03199  -0.03024  -2.74227
   D23       -2.71672  -0.00576   0.00000   0.13169   0.13015  -2.58657
   D24        1.04719  -0.02900   0.00000   0.00000   0.00001   1.04720
         Item               Value     Threshold  Converged?
 Maximum Force            0.014310     0.000450     NO 
 RMS     Force            0.003678     0.000300     NO 
 Maximum Displacement     0.162663     0.001800     NO 
 RMS     Displacement     0.047416     0.001200     NO 
 Predicted change in Energy=-3.081991D-03
 GradGradGradGradGradGradGradGradGradGradGradGradGradGradGradGradGradGrad

                          Input orientation:                          
 ---------------------------------------------------------------------
 Center     Atomic     Atomic              Coordinates (Angstroms)
 Number     Number      Type              X           Y           Z
 ---------------------------------------------------------------------
    1          6             0       -0.024640   -0.008503    0.109779
    2          1             0       -0.582984   -0.947365    0.120482
    3          6             0        1.380320   -0.017105    0.059797
    4          1             0        1.917619   -0.970417    0.073939
    5          6             0        2.079493    1.191923   -0.091909
    6          1             0        3.171744    1.195880   -0.150037
    7          6             0        1.363138    2.403206   -0.081139
    8          1             0        1.910664    3.350510   -0.070357
    9          6             0       -0.052235    2.446163   -0.052459
   10          1             0       -0.417779    3.365120    0.421970
   11          6             0       -0.735680    1.216816    0.102288
   12         17             0       -2.417980    1.063172   -0.442354
 ---------------------------------------------------------------------
                    Distance matrix (angstroms):
                    1          2          3          4          5
     1  C    0.000000
     2  H    1.092394   0.000000
     3  C    1.405875   2.173391   0.000000
     4  H    2.167703   2.501142   1.094392   0.000000
     5  C    2.430859   3.422053   1.404851   2.174724   0.000000
     6  H    3.425626   4.331820   2.173606   2.513133   1.093804
     7  C    2.789035   3.879995   2.424472   3.422401   1.407298
     8  H    3.880827   4.972568   3.411603   4.323341   2.165287
     9  C    2.460176   3.439133   2.851754   3.945798   2.473649
    10  H    3.410771   4.326167   3.847568   4.936811   3.350109
    11  C    1.416701   2.169638   2.449862   3.438720   2.821973
    12  Cl   2.679816   2.779614   3.980733   4.816582   4.512943
                    6          7          8          9         10
     6  H    0.000000
     7  C    2.175647   0.000000
     8  H    2.497819   1.094206   0.000000
     9  C    3.459302   1.416315   2.161282   0.000000
    10  H    4.232904   2.085681   2.379968   1.096899   0.000000
    11  C    3.915619   2.417892   3.403762   1.415039   2.195101
    12  Cl   5.598935   4.027781   4.909935   2.767929   3.169673
                   11         12
    11  C    0.000000
    12  Cl   1.774929   0.000000
 Symmetry turned off by external request.
 Stoichiometry    C6H5Cl
 Framework group  C1[X(C6H5Cl)]
 Deg. of freedom    30
 Full point group                 C1
 Rotational constants (GHZ):      5.4214541      1.5608370      1.2288766
 Standard basis: Aug-CC-pVDZ (5D, 7F)
 Integral buffers will be    131072 words long.
 Raffenetti 1 integral format.
 Two-electron integral symmetry is turned off.
   210 basis functions,   396 primitive gaussians,   224 cartesian basis functions
    29 alpha electrons       29 beta electrons
       nuclear repulsion energy       312.5262997150 Hartrees.
 NAtoms=   12 NActive=   12 NUniq=   12 SFac= 7.50D-01 NAtFMM=   80 NAOKFM=F Big=F
 One-electron integrals computed using PRISM.
 NBasis=   210 RedAO= T  NBF=   210
 NBsUse=   210 1.00D-06 NBFU=   210
 Initial guess read from the read-write file:
 Harris functional with IExCor=  205 diagonalized for initial guess.
 ExpMin= 2.97D-02 ExpMax= 1.28D+05 ExpMxC= 1.24D+03 IAcc=3 IRadAn=         5 AccDes= 0.00D+00
 HarFok:  IExCor= 205 AccDes= 0.00D+00 IRadAn=         5 IDoV=1
 ScaDFX=  1.000000  1.000000  1.000000  1.000000
 Requested convergence on RMS density matrix=1.00D-08 within 128 cycles.
 Requested convergence on MAX density matrix=1.00D-06.
 Requested convergence on             energy=1.00D-06.
 No special actions if energy rises.
 Keep R1 integrals in memory in canonical form, NReq=   324243586.
 SCF Done:  E(RHF) =  -689.616482703     A.U. after   14 cycles
             Convg  =    0.7973D-08             -V/T =  2.0008
             S**2   =   0.0000
 ExpMin= 2.97D-02 ExpMax= 1.28D+05 ExpMxC= 1.24D+03 IAcc=3 IRadAn=         5 AccDes= 0.00D+00
 HarFok:  IExCor= 205 AccDes= 0.00D+00 IRadAn=         5 IDoV=1
 ScaDFX=  1.000000  1.000000  1.000000  1.000000
 Range of M.O.s used for correlation:    12   210
 NBasis=   210 NAE=    29 NBE=    29 NFC=    11 NFV=     0
 NROrb=    199 NOA=    18 NOB=    18 NVA=   181 NVB=   181

 **** Warning!!: The largest alpha MO coefficient is  0.81608325D+02

 Fully direct method using O(ONN) memory.
 JobTyp=1 Pass  1:  I=  12 to  14 NPSUse=  8 ParTrn=T ParDer=T DoDerP=T.
 JobTyp=1 Pass  2:  I=  15 to  17 NPSUse=  8 ParTrn=T ParDer=T DoDerP=T.
 JobTyp=1 Pass  3:  I=  18 to  20 NPSUse=  8 ParTrn=T ParDer=T DoDerP=T.
 JobTyp=1 Pass  4:  I=  21 to  23 NPSUse=  8 ParTrn=T ParDer=T DoDerP=T.
 JobTyp=1 Pass  5:  I=  24 to  26 NPSUse=  8 ParTrn=T ParDer=T DoDerP=T.
 JobTyp=1 Pass  6:  I=  27 to  29 NPSUse=  8 ParTrn=T ParDer=T DoDerP=T.
 Spin components of T(2) and E(2):
     alpha-alpha T2 =       0.5434559373D-01 E2=     -0.1296091666D+00
     alpha-beta  T2 =       0.2761078069D+00 E2=     -0.7066741441D+00
     beta-beta   T2 =       0.5434559373D-01 E2=     -0.1296091666D+00
 ANorm=    0.1176774827D+01
 E2 =    -0.9658924774D+00 EUMP2 =    -0.69058237518003D+03
 DoAtom=TTTTTTTTTTTT
          Differentiating once with respect to electric field.
                with respect to dipole field.
          Differentiating once with respect to nuclear coordinates.
          Store integrals in memory, NReq=   318354204.
          There are   1 degrees of freedom in the 1st order CPHF.
     1 vectors were produced by pass  0.
 AX will form   1 AO Fock derivatives at one time.
     1 vectors were produced by pass  1.
     1 vectors were produced by pass  2.
     1 vectors were produced by pass  3.
     1 vectors were produced by pass  4.
     1 vectors were produced by pass  5.
     1 vectors were produced by pass  6.
     1 vectors were produced by pass  7.
     1 vectors were produced by pass  8.
     1 vectors were produced by pass  9.
     1 vectors were produced by pass 10.
     1 vectors were produced by pass 11.
     1 vectors were produced by pass 12.
     1 vectors were produced by pass 13.
     1 vectors were produced by pass 14.
     1 vectors were produced by pass 15.
 Inv2:  IOpt= 1 Iter= 1 AM= 3.52D-16 Conv= 1.00D-12.
 Inverted reduced A of dimension   16 with in-core refinement.
 End of Minotr Frequency-dependent properties file   721 does not exist.
 -------------------------------------------------------------------
 Center     Atomic                   Forces (Hartrees/Bohr)
 Number     Number              X              Y              Z
 -------------------------------------------------------------------
    1          6          -0.002889483    0.004686499    0.000041762
    2          1          -0.000788315   -0.000267752    0.000415949
    3          6           0.000132956    0.000418873   -0.000365607
    4          1          -0.000333365    0.000101138    0.000693702
    5          6           0.000605244    0.000567867    0.000206445
    6          1          -0.000113448    0.000089516   -0.000566756
    7          6          -0.000254531   -0.001677724    0.000181780
    8          1          -0.000110282    0.000420410   -0.000590635
    9          6           0.017552119    0.000031862    0.040187886
   10          1          -0.015611477    0.004886614   -0.021508911
   11          6           0.003920277   -0.016352219   -0.033905154
   12         17          -0.002109694    0.007094914    0.015209539
 -------------------------------------------------------------------
 Cartesian Forces:  Max     0.040187886 RMS     0.011066026

 GradGradGradGradGradGradGradGradGradGradGradGradGradGradGradGradGradGrad
 Berny optimization.
 Internal  Forces:  Max     0.024486154 RMS     0.004899872
 Search for a local minimum.
 Step number   2 out of a maximum of  64 on scan point     1 out of     9
 All quantities printed in internal units (Hartrees-Bohrs-Radians)
 Update second derivatives using D2CorX and points  1  2
 Trust test= 9.04D-01 RLast= 3.03D-01 DXMaxT set to 4.24D-01
     Eigenvalues ---    0.01958   0.01988   0.02001   0.02058   0.02070
     Eigenvalues ---    0.02080   0.02265   0.02966   0.12340   0.15916
     Eigenvalues ---    0.15966   0.15977   0.15998   0.19745   0.21924
     Eigenvalues ---    0.22010   0.23987   0.30721   0.33766   0.34355
     Eigenvalues ---    0.34363   0.34415   0.34520   0.40527   0.41046
     Eigenvalues ---    0.44038   0.44355   0.45341   0.475031000.00000
     Eigenvalues --- 1000.000001000.000001000.000001000.000001000.00000
     Eigenvalues --- 1000.000001000.000001000.000001000.000001000.00000
     Eigenvalues --- 1000.000001000.000001000.000001000.000001000.00000
     Eigenvalues --- 1000.000001000.000001000.000001000.000001000.00000
     Eigenvalues --- 1000.000001000.000001000.000001000.00000
 RFO step:  Lambda=-4.28984970D-04.
 Quartic linear search produced a step of  0.12766.
 Iteration  1 RMS(Cart)=  0.01744409 RMS(Int)=  0.00024587
 Iteration  2 RMS(Cart)=  0.00022214 RMS(Int)=  0.00016440
 Iteration  3 RMS(Cart)=  0.00000005 RMS(Int)=  0.00016440
 Iteration  1 RMS(Cart)=  0.00003146 RMS(Int)=  0.00003443
 Iteration  2 RMS(Cart)=  0.00001596 RMS(Int)=  0.00003849
 Iteration  3 RMS(Cart)=  0.00000810 RMS(Int)=  0.00004311
 Iteration  4 RMS(Cart)=  0.00000411 RMS(Int)=  0.00004592
 Iteration  5 RMS(Cart)=  0.00000209 RMS(Int)=  0.00004744
 Iteration  6 RMS(Cart)=  0.00000106 RMS(Int)=  0.00004823
 Iteration  7 RMS(Cart)=  0.00000054 RMS(Int)=  0.00004864
 Variable       Old X    -DE/DX   Delta X   Delta X   Delta X     New X
                                 (Linear)    (Quad)   (Total)
    R1        2.06433   0.00064  -0.00009   0.00212   0.00203   2.06636
    R2        2.65672   0.00089   0.00064   0.00082   0.00147   2.65819
    R3        2.67718  -0.00655   0.00144  -0.01701  -0.01556   2.66161
    R4        2.06810  -0.00024   0.00010  -0.00084  -0.00074   2.06736
    R5        2.65478   0.00132   0.00131   0.00139   0.00269   2.65747
    R6        2.06699  -0.00008   0.00008  -0.00031  -0.00023   2.06676
    R7        2.65941   0.00003   0.00095  -0.00088   0.00007   2.65947
    R8        2.06775   0.00030   0.00005   0.00096   0.00102   2.06877
    R9        2.67645  -0.00095   0.00093  -0.00172  -0.00081   2.67564
   R10        2.07284  -0.00001  -0.00058   0.00027  -0.00031   2.07253
   R11        2.67404   0.00148   0.00081   0.00463   0.00545   2.67949
   R12        3.35413  -0.00328   0.00309  -0.01412  -0.01103   3.34310
    A1        2.10119   0.00131  -0.00010   0.00632   0.00630   2.10750
    A2        2.07930   0.00010  -0.00075  -0.00112  -0.00181   2.07749
    A3        2.10212  -0.00139   0.00091  -0.00497  -0.00424   2.09788
    A4        2.08922  -0.00071   0.00028  -0.00327  -0.00295   2.08627
    A5        2.08971   0.00066  -0.00085   0.00242   0.00136   2.09107
    A6        2.10217   0.00006   0.00034   0.00124   0.00163   2.10380
    A7        2.10114   0.00033   0.00019   0.00170   0.00194   2.10308
    A8        2.07896  -0.00022  -0.00042  -0.00098  -0.00162   2.07735
    A9        2.10087  -0.00009  -0.00001  -0.00029  -0.00025   2.10062
   A10        2.08349   0.00090   0.00000   0.00230   0.00239   2.08587
   A11        2.13525  -0.00113   0.00138  -0.00092   0.00022   2.13546
   A12        2.06417   0.00024  -0.00128  -0.00121  -0.00241   2.06175
   A13        1.94679   0.00912   0.00162   0.01342   0.01529   1.96208
   A14        2.04714  -0.00015  -0.00084  -0.00366  -0.00467   2.04246
   A15        2.11716  -0.00211  -0.00333  -0.00047  -0.00389   2.11327
   A16        2.10549   0.00255   0.00068   0.00900   0.00932   2.11481
   A17        1.98500   0.00833   0.01016   0.00724   0.01753   2.00253
   A18        2.09374  -0.00563  -0.00434  -0.01739  -0.02214   2.07159
    D1       -0.04468   0.00097   0.00306  -0.00648  -0.00332  -0.04800
    D2        3.02779   0.00129  -0.00269   0.00001  -0.00253   3.02526
    D3        3.13345   0.00034   0.00144  -0.01388  -0.01247   3.12099
    D4       -0.07726   0.00067  -0.00432  -0.00739  -0.01167  -0.08894
    D5       -3.02558  -0.00422  -0.01009  -0.01561  -0.02597  -3.05154
    D6       -0.34762   0.00582   0.00112  -0.02293  -0.02129  -0.36892
    D7        0.07993  -0.00357  -0.00847  -0.00815  -0.01681   0.06312
    D8        2.75788   0.00646   0.00274  -0.01546  -0.01213   2.74574
    D9       -3.12246   0.00110   0.00657   0.01774   0.02433  -3.09813
   D10        0.09022   0.00085   0.01239   0.01085   0.02320   0.11342
   D11       -0.05051   0.00139   0.00078   0.02410   0.02494  -0.02557
   D12       -3.12102   0.00114   0.00659   0.01721   0.02381  -3.09721
   D13        3.00637   0.00133  -0.00521   0.00950   0.00445   3.01082
   D14       -0.10910   0.00068  -0.00813   0.00151  -0.00658  -0.11568
   D15       -0.06414   0.00107   0.00060   0.00253   0.00323  -0.06092
   D16        3.10357   0.00041  -0.00231  -0.00547  -0.00780   3.09577
   D17        2.66309   0.00620  -0.00953  -0.00278  -0.01204   2.65106
   D18        0.10911  -0.00354  -0.00445  -0.01692  -0.02125   0.08786
   D19       -0.45265   0.00555  -0.01245  -0.01075  -0.02299  -0.47564
   D20       -3.00664  -0.00420  -0.00737  -0.02488  -0.03220  -3.03884
   D21       -0.09286   0.00475   0.01275   0.01953   0.03237  -0.06049
   D22       -2.74227  -0.00972  -0.00386   0.02029   0.01673  -2.72555
   D23       -2.58657  -0.01002   0.01661  -0.00076   0.01564  -2.57093
   D24        1.04720  -0.02449   0.00000   0.00000   0.00000   1.04720
         Item               Value     Threshold  Converged?
 Maximum Force            0.006238     0.000450     NO 
 RMS     Force            0.001327     0.000300     NO 
 Maximum Displacement     0.051936     0.001800     NO 
 RMS     Displacement     0.017442     0.001200     NO 
 Predicted change in Energy=-2.666199D-04
 GradGradGradGradGradGradGradGradGradGradGradGradGradGradGradGradGradGrad

                          Input orientation:                          
 ---------------------------------------------------------------------
 Center     Atomic     Atomic              Coordinates (Angstroms)
 Number     Number      Type              X           Y           Z
 ---------------------------------------------------------------------
    1          6             0       -0.024882   -0.012375    0.109247
    2          1             0       -0.586715   -0.950280    0.128046
    3          6             0        1.381100   -0.016948    0.066043
    4          1             0        1.918484   -0.969369    0.096778
    5          6             0        2.079378    1.192492   -0.099092
    6          1             0        3.170418    1.197605   -0.174892
    7          6             0        1.362067    2.403148   -0.080012
    8          1             0        1.906711    3.352788   -0.083688
    9          6             0       -0.052572    2.445095   -0.037896
   10          1             0       -0.429799    3.352298    0.449453
   11          6             0       -0.730151    1.206717    0.095568
   12         17             0       -2.402358    1.088228   -0.469556
 ---------------------------------------------------------------------
                    Distance matrix (angstroms):
                    1          2          3          4          5
     1  C    0.000000
     2  H    1.093470   0.000000
     3  C    1.406654   2.178819   0.000000
     4  H    2.166257   2.505467   1.093998   0.000000
     5  C    2.433726   3.427990   1.406274   2.176671   0.000000
     6  H    3.428517   4.338344   2.175970   2.517324   1.093682
     7  C    2.791809   3.884137   2.424574   3.422679   1.407333
     8  H    3.884919   4.977791   3.413767   4.325939   2.167240
     9  C    2.462026   3.441136   2.850943   3.944840   2.473452
    10  H    3.405983   4.317419   3.844240   4.931088   3.355836
    11  C    1.408466   2.162005   2.440412   3.427918   2.816300
    12  Cl   2.683045   2.794495   3.977793   4.819141   4.498230
                    6          7          8          9         10
     6  H    0.000000
     7  C    2.175424   0.000000
     8  H    2.500017   1.094745   0.000000
     9  C    3.458708   1.415887   2.159813   0.000000
    10  H    4.241942   2.095711   2.396564   1.096735   0.000000
    11  C    3.909945   2.416537   3.404525   1.417923   2.195214
    12  Cl   5.581633   4.006452   4.883155   2.747529   3.140315
                   11         12
    11  C    0.000000
    12  Cl   1.769091   0.000000
 Symmetry turned off by external request.
 Stoichiometry    C6H5Cl
 Framework group  C1[X(C6H5Cl)]
 Deg. of freedom    30
 Full point group                 C1
 Rotational constants (GHZ):      5.4040266      1.5700499      1.2354813
 Standard basis: Aug-CC-pVDZ (5D, 7F)
 Integral buffers will be    131072 words long.
 Raffenetti 1 integral format.
 Two-electron integral symmetry is turned off.
   210 basis functions,   396 primitive gaussians,   224 cartesian basis functions
    29 alpha electrons       29 beta electrons
       nuclear repulsion energy       312.9394289043 Hartrees.
 NAtoms=   12 NActive=   12 NUniq=   12 SFac= 7.50D-01 NAtFMM=   80 NAOKFM=F Big=F
 One-electron integrals computed using PRISM.
 NBasis=   210 RedAO= T  NBF=   210
 NBsUse=   210 1.00D-06 NBFU=   210
 Initial guess read from the read-write file:
 Harris functional with IExCor=  205 diagonalized for initial guess.
 ExpMin= 2.97D-02 ExpMax= 1.28D+05 ExpMxC= 1.24D+03 IAcc=3 IRadAn=         5 AccDes= 0.00D+00
 HarFok:  IExCor= 205 AccDes= 0.00D+00 IRadAn=         5 IDoV=1
 ScaDFX=  1.000000  1.000000  1.000000  1.000000
 Requested convergence on RMS density matrix=1.00D-08 within 128 cycles.
 Requested convergence on MAX density matrix=1.00D-06.
 Requested convergence on             energy=1.00D-06.
 No special actions if energy rises.
 Keep R1 integrals in memory in canonical form, NReq=   324243586.
 SCF Done:  E(RHF) =  -689.616945632     A.U. after   13 cycles
             Convg  =    0.4559D-08             -V/T =  2.0007
             S**2   =   0.0000
 ExpMin= 2.97D-02 ExpMax= 1.28D+05 ExpMxC= 1.24D+03 IAcc=3 IRadAn=         5 AccDes= 0.00D+00
 HarFok:  IExCor= 205 AccDes= 0.00D+00 IRadAn=         5 IDoV=1
 ScaDFX=  1.000000  1.000000  1.000000  1.000000
 Range of M.O.s used for correlation:    12   210
 NBasis=   210 NAE=    29 NBE=    29 NFC=    11 NFV=     0
 NROrb=    199 NOA=    18 NOB=    18 NVA=   181 NVB=   181

 **** Warning!!: The largest alpha MO coefficient is  0.84766655D+02

 Fully direct method using O(ONN) memory.
 JobTyp=1 Pass  1:  I=  12 to  14 NPSUse=  8 ParTrn=T ParDer=T DoDerP=T.
 JobTyp=1 Pass  2:  I=  15 to  17 NPSUse=  8 ParTrn=T ParDer=T DoDerP=T.
 JobTyp=1 Pass  3:  I=  18 to  20 NPSUse=  8 ParTrn=T ParDer=T DoDerP=T.
 JobTyp=1 Pass  4:  I=  21 to  23 NPSUse=  8 ParTrn=T ParDer=T DoDerP=T.
 JobTyp=1 Pass  5:  I=  24 to  26 NPSUse=  8 ParTrn=T ParDer=T DoDerP=T.
 JobTyp=1 Pass  6:  I=  27 to  29 NPSUse=  8 ParTrn=T ParDer=T DoDerP=T.
 Spin components of T(2) and E(2):
     alpha-alpha T2 =       0.5430944447D-01 E2=     -0.1296103622D+00
     alpha-beta  T2 =       0.2758481760D+00 E2=     -0.7064932100D+00
     beta-beta   T2 =       0.5430944447D-01 E2=     -0.1296103622D+00
 ANorm=    0.1176633785D+01
 E2 =    -0.9657139343D+00 EUMP2 =    -0.69058265956642D+03
 DoAtom=TTTTTTTTTTTT
          Differentiating once with respect to electric field.
                with respect to dipole field.
          Differentiating once with respect to nuclear coordinates.
          Store integrals in memory, NReq=   318354204.
          There are   1 degrees of freedom in the 1st order CPHF.
     1 vectors were produced by pass  0.
 AX will form   1 AO Fock derivatives at one time.
     1 vectors were produced by pass  1.
     1 vectors were produced by pass  2.
     1 vectors were produced by pass  3.
     1 vectors were produced by pass  4.
     1 vectors were produced by pass  5.
     1 vectors were produced by pass  6.
     1 vectors were produced by pass  7.
     1 vectors were produced by pass  8.
     1 vectors were produced by pass  9.
     1 vectors were produced by pass 10.
     1 vectors were produced by pass 11.
     1 vectors were produced by pass 12.
     1 vectors were produced by pass 13.
     1 vectors were produced by pass 14.
     1 vectors were produced by pass 15.
 Inv2:  IOpt= 1 Iter= 1 AM= 3.59D-16 Conv= 1.00D-12.
 Inverted reduced A of dimension   16 with in-core refinement.
 End of Minotr Frequency-dependent properties file   721 does not exist.
 -------------------------------------------------------------------
 Center     Atomic                   Forces (Hartrees/Bohr)
 Number     Number              X              Y              Z
 -------------------------------------------------------------------
    1          6          -0.000972811    0.000686427    0.000677456
    2          1           0.000120470    0.000038013   -0.000114069
    3          6           0.000887561    0.000662052   -0.000523876
    4          1           0.000087793   -0.000005091    0.000119716
    5          6          -0.000492194   -0.000881728    0.000395842
    6          1          -0.000079468   -0.000096680   -0.000074703
    7          6          -0.000859799    0.000342403   -0.000236143
    8          1           0.000107158   -0.000002481    0.000088242
    9          6           0.018501893   -0.003933926    0.039045559
   10          1          -0.014797364    0.005270438   -0.021668024
   11          6           0.002343862   -0.006894033   -0.032620458
   12         17          -0.004847100    0.004814608    0.014910459
 -------------------------------------------------------------------
 Cartesian Forces:  Max     0.039045559 RMS     0.010528089

 GradGradGradGradGradGradGradGradGradGradGradGradGradGradGradGradGradGrad
 Berny optimization.
 Internal  Forces:  Max     0.023616547 RMS     0.004588716
 Search for a local minimum.
 Step number   3 out of a maximum of  64 on scan point     1 out of     9
 All quantities printed in internal units (Hartrees-Bohrs-Radians)
 Update second derivatives using D2CorX and points  1  2  3
 Trust test= 1.07D+00 RLast= 9.85D-02 DXMaxT set to 4.24D-01
     Eigenvalues ---    0.01982   0.01989   0.02013   0.02027   0.02071
     Eigenvalues ---    0.02095   0.02396   0.02881   0.11688   0.15959
     Eigenvalues ---    0.15974   0.16001   0.16080   0.18898   0.21986
     Eigenvalues ---    0.22030   0.23995   0.30590   0.33761   0.34353
     Eigenvalues ---    0.34365   0.34416   0.34544   0.40500   0.41423
     Eigenvalues ---    0.43184   0.44462   0.45890   0.465751000.00000
     Eigenvalues --- 1000.000001000.000001000.000001000.000001000.00000
     Eigenvalues --- 1000.000001000.000001000.000001000.000001000.00000
     Eigenvalues --- 1000.000001000.000001000.000001000.000001000.00000
     Eigenvalues --- 1000.000001000.000001000.000001000.000001000.00000
     Eigenvalues --- 1000.000001000.000001000.000001000.00000
 RFO step:  Lambda=-2.05786480D-05.
 Quartic linear search produced a step of  0.10309.
 Iteration  1 RMS(Cart)=  0.00239598 RMS(Int)=  0.00001338
 Iteration  2 RMS(Cart)=  0.00000912 RMS(Int)=  0.00001042
 Iteration  3 RMS(Cart)=  0.00000000 RMS(Int)=  0.00001042
 Iteration  1 RMS(Cart)=  0.00000203 RMS(Int)=  0.00000223
 Iteration  2 RMS(Cart)=  0.00000103 RMS(Int)=  0.00000249
 Iteration  3 RMS(Cart)=  0.00000053 RMS(Int)=  0.00000279
 Variable       Old X    -DE/DX   Delta X   Delta X   Delta X     New X
                                 (Linear)    (Quad)   (Total)
    R1        2.06636  -0.00010   0.00021  -0.00043  -0.00022   2.06614
    R2        2.65819   0.00081   0.00015   0.00095   0.00110   2.65929
    R3        2.66161  -0.00113  -0.00160  -0.00123  -0.00283   2.65878
    R4        2.06736   0.00005  -0.00008   0.00021   0.00014   2.06749
    R5        2.65747  -0.00037   0.00028  -0.00215  -0.00188   2.65560
    R6        2.06676  -0.00007  -0.00002  -0.00022  -0.00025   2.06651
    R7        2.65947   0.00061   0.00001   0.00079   0.00079   2.66027
    R8        2.06877   0.00005   0.00010   0.00011   0.00021   2.06898
    R9        2.67564  -0.00114  -0.00008  -0.00178  -0.00187   2.67377
   R10        2.07253  -0.00018  -0.00003  -0.00060  -0.00064   2.07189
   R11        2.67949   0.00041   0.00056   0.00213   0.00269   2.68217
   R12        3.34310  -0.00050  -0.00114  -0.00108  -0.00222   3.34088
    A1        2.10750   0.00036   0.00065  -0.00062   0.00002   2.10752
    A2        2.07749   0.00045  -0.00019   0.00106   0.00087   2.07837
    A3        2.09788  -0.00080  -0.00044  -0.00061  -0.00107   2.09681
    A4        2.08627  -0.00014  -0.00030   0.00081   0.00050   2.08677
    A5        2.09107   0.00029   0.00014  -0.00012   0.00001   2.09108
    A6        2.10380  -0.00013   0.00017  -0.00036  -0.00019   2.10361
    A7        2.10308  -0.00025   0.00020  -0.00145  -0.00124   2.10184
    A8        2.07735   0.00047  -0.00017   0.00153   0.00136   2.07871
    A9        2.10062  -0.00020  -0.00003  -0.00001  -0.00003   2.10059
   A10        2.08587   0.00046   0.00025  -0.00048  -0.00023   2.08564
   A11        2.13546  -0.00106   0.00002  -0.00067  -0.00066   2.13481
   A12        2.06175   0.00061  -0.00025   0.00108   0.00083   2.06259
   A13        1.96208   0.00799   0.00158   0.00069   0.00228   1.96436
   A14        2.04246   0.00090  -0.00048  -0.00054  -0.00104   2.04143
   A15        2.11327  -0.00220  -0.00040  -0.00364  -0.00405   2.10922
   A16        2.11481   0.00042   0.00096   0.00090   0.00184   2.11665
   A17        2.00253   0.00651   0.00181   0.00240   0.00422   2.00675
   A18        2.07159  -0.00195  -0.00228  -0.00070  -0.00300   2.06859
    D1       -0.04800   0.00112  -0.00034  -0.00546  -0.00580  -0.05380
    D2        3.02526   0.00164  -0.00026  -0.00001  -0.00026   3.02499
    D3        3.12099   0.00056  -0.00128   0.00198   0.00069   3.12168
    D4       -0.08894   0.00108  -0.00120   0.00743   0.00622  -0.08271
    D5       -3.05154  -0.00394  -0.00268   0.00196  -0.00073  -3.05227
    D6       -0.36892   0.00697  -0.00220   0.00772   0.00556  -0.36336
    D7        0.06312  -0.00339  -0.00173  -0.00538  -0.00713   0.05600
    D8        2.74574   0.00752  -0.00125   0.00038  -0.00083   2.74491
    D9       -3.09813   0.00059   0.00251  -0.00388  -0.00137  -3.09951
   D10        0.11342   0.00027   0.00239  -0.00517  -0.00278   0.11063
   D11       -0.02557   0.00111   0.00257   0.00167   0.00425  -0.02132
   D12       -3.09721   0.00079   0.00245   0.00038   0.00284  -3.09437
   D13        3.01082   0.00138   0.00046  -0.00419  -0.00372   3.00710
   D14       -0.11568   0.00079  -0.00068   0.00098   0.00031  -0.11537
   D15       -0.06092   0.00107   0.00033  -0.00542  -0.00508  -0.06599
   D16        3.09577   0.00047  -0.00080  -0.00025  -0.00105   3.09472
   D17        2.65106   0.00677  -0.00124  -0.00576  -0.00698   2.64407
   D18        0.08786  -0.00294  -0.00219   0.00091  -0.00127   0.08659
   D19       -0.47564   0.00618  -0.00237  -0.00064  -0.00300  -0.47864
   D20       -3.03884  -0.00353  -0.00332   0.00603   0.00272  -3.03612
   D21       -0.06049   0.00413   0.00334   0.00113   0.00448  -0.05601
   D22       -2.72555  -0.00937   0.00172  -0.00566  -0.00391  -2.72946
   D23       -2.57093  -0.01012   0.00161   0.00679   0.00839  -2.56254
   D24        1.04720  -0.02362   0.00000   0.00000   0.00000   1.04720
         Item               Value     Threshold  Converged?
 Maximum Force            0.000929     0.000450     NO 
 RMS     Force            0.000295     0.000300     YES
 Maximum Displacement     0.007767     0.001800     NO 
 RMS     Displacement     0.002398     0.001200     NO 
 Predicted change in Energy=-1.347234D-05
 GradGradGradGradGradGradGradGradGradGradGradGradGradGradGradGradGradGrad

                          Input orientation:                          
 ---------------------------------------------------------------------
 Center     Atomic     Atomic              Coordinates (Angstroms)
 Number     Number      Type              X           Y           Z
 ---------------------------------------------------------------------
    1          6             0       -0.025104   -0.012746    0.110853
    2          1             0       -0.586496   -0.950786    0.129329
    3          6             0        1.381384   -0.016702    0.065133
    4          1             0        1.919889   -0.968464    0.099062
    5          6             0        2.078399    1.192347   -0.099742
    6          1             0        3.169277    1.196747   -0.176047
    7          6             0        1.361619    2.403820   -0.081664
    8          1             0        1.907188    3.353066   -0.081811
    9          6             0       -0.052054    2.445710   -0.040216
   10          1             0       -0.431671    3.348779    0.452172
   11          6             0       -0.729086    1.205292    0.092197
   12         17             0       -2.401666    1.092338   -0.469267
 ---------------------------------------------------------------------
                    Distance matrix (angstroms):
                    1          2          3          4          5
     1  C    0.000000
     2  H    1.093353   0.000000
     3  C    1.407236   2.179262   0.000000
     4  H    2.167148   2.506630   1.094070   0.000000
     5  C    2.433377   3.427412   1.405281   2.175719   0.000000
     6  H    3.427718   4.337163   2.174210   2.514914   1.093552
     7  C    2.792823   3.884978   2.425051   3.422956   1.407753
     8  H    3.885816   4.978573   3.413708   4.325332   2.167566
     9  C    2.463241   3.442464   2.851195   3.945192   2.472507
    10  H    3.403182   4.314447   3.842321   4.928803   3.354886
    11  C    1.406967   2.161107   2.438870   3.426708   2.814068
    12  Cl   2.684362   2.797770   3.978319   4.821383   4.496391
                    6          7          8          9         10
     6  H    0.000000
     7  C    2.175674   0.000000
     8  H    2.500292   1.094858   0.000000
     9  C    3.457648   1.414901   2.159550   0.000000
    10  H    4.241783   2.096143   2.399046   1.096398   0.000000
    11  C    3.907590   2.416142   3.404872   1.419345   2.193757
    12  Cl   5.579631   4.004065   4.881315   2.745246   3.133920
                   11         12
    11  C    0.000000
    12  Cl   1.767915   0.000000
 Symmetry turned off by external request.
 Stoichiometry    C6H5Cl
 Framework group  C1[X(C6H5Cl)]
 Deg. of freedom    30
 Full point group                 C1
 Rotational constants (GHZ):      5.4033922      1.5711405      1.2360183
 Standard basis: Aug-CC-pVDZ (5D, 7F)
 Integral buffers will be    131072 words long.
 Raffenetti 1 integral format.
 Two-electron integral symmetry is turned off.
   210 basis functions,   396 primitive gaussians,   224 cartesian basis functions
    29 alpha electrons       29 beta electrons
       nuclear repulsion energy       313.0023185267 Hartrees.
 NAtoms=   12 NActive=   12 NUniq=   12 SFac= 7.50D-01 NAtFMM=   80 NAOKFM=F Big=F
 One-electron integrals computed using PRISM.
 NBasis=   210 RedAO= T  NBF=   210
 NBsUse=   210 1.00D-06 NBFU=   210
 Initial guess read from the read-write file:
 Requested convergence on RMS density matrix=1.00D-08 within 128 cycles.
 Requested convergence on MAX density matrix=1.00D-06.
 Requested convergence on             energy=1.00D-06.
 No special actions if energy rises.
 Keep R1 integrals in memory in canonical form, NReq=   324243586.
 SCF Done:  E(RHF) =  -689.617039509     A.U. after   11 cycles
             Convg  =    0.9173D-08             -V/T =  2.0007
             S**2   =   0.0000
 ExpMin= 2.97D-02 ExpMax= 1.28D+05 ExpMxC= 1.24D+03 IAcc=3 IRadAn=         5 AccDes= 0.00D+00
 HarFok:  IExCor= 205 AccDes= 0.00D+00 IRadAn=         5 IDoV=1
 ScaDFX=  1.000000  1.000000  1.000000  1.000000
 Range of M.O.s used for correlation:    12   210
 NBasis=   210 NAE=    29 NBE=    29 NFC=    11 NFV=     0
 NROrb=    199 NOA=    18 NOB=    18 NVA=   181 NVB=   181

 **** Warning!!: The largest alpha MO coefficient is  0.86565486D+02

 Fully direct method using O(ONN) memory.
 JobTyp=1 Pass  1:  I=  12 to  14 NPSUse=  8 ParTrn=T ParDer=T DoDerP=T.
 JobTyp=1 Pass  2:  I=  15 to  17 NPSUse=  8 ParTrn=T ParDer=T DoDerP=T.
 JobTyp=1 Pass  3:  I=  18 to  20 NPSUse=  8 ParTrn=T ParDer=T DoDerP=T.
 JobTyp=1 Pass  4:  I=  21 to  23 NPSUse=  8 ParTrn=T ParDer=T DoDerP=T.
 JobTyp=1 Pass  5:  I=  24 to  26 NPSUse=  8 ParTrn=T ParDer=T DoDerP=T.
 JobTyp=1 Pass  6:  I=  27 to  29 NPSUse=  8 ParTrn=T ParDer=T DoDerP=T.
 Spin components of T(2) and E(2):
     alpha-alpha T2 =       0.5429403771D-01 E2=     -0.1296027160D+00
     alpha-beta  T2 =       0.2757670313D+00 E2=     -0.7064284578D+00
     beta-beta   T2 =       0.5429403771D-01 E2=     -0.1296027160D+00
 ANorm=    0.1176586209D+01
 E2 =    -0.9656338899D+00 EUMP2 =    -0.69058267339880D+03
 DoAtom=TTTTTTTTTTTT
          Differentiating once with respect to electric field.
                with respect to dipole field.
          Differentiating once with respect to nuclear coordinates.
          Store integrals in memory, NReq=   318354204.
          There are   1 degrees of freedom in the 1st order CPHF.
     1 vectors were produced by pass  0.
 AX will form   1 AO Fock derivatives at one time.
     1 vectors were produced by pass  1.
     1 vectors were produced by pass  2.
     1 vectors were produced by pass  3.
     1 vectors were produced by pass  4.
     1 vectors were produced by pass  5.
     1 vectors were produced by pass  6.
     1 vectors were produced by pass  7.
     1 vectors were produced by pass  8.
     1 vectors were produced by pass  9.
     1 vectors were produced by pass 10.
     1 vectors were produced by pass 11.
     1 vectors were produced by pass 12.
     1 vectors were produced by pass 13.
     1 vectors were produced by pass 14.
     1 vectors were produced by pass 15.
 Inv2:  IOpt= 1 Iter= 1 AM= 4.79D-16 Conv= 1.00D-12.
 Inverted reduced A of dimension   16 with in-core refinement.
 End of Minotr Frequency-dependent properties file   721 does not exist.
 -------------------------------------------------------------------
 Center     Atomic                   Forces (Hartrees/Bohr)
 Number     Number              X              Y              Z
 -------------------------------------------------------------------
    1          6          -0.000352960    0.000037525   -0.000031010
    2          1           0.000063145   -0.000021704   -0.000020166
    3          6           0.000329425    0.000208770    0.000008171
    4          1           0.000009917    0.000019909    0.000029006
    5          6          -0.000076250   -0.000301618    0.000018053
    6          1           0.000034968   -0.000007981   -0.000035905
    7          6          -0.000240673    0.000280543   -0.000065528
    8          1           0.000072291   -0.000068740   -0.000012322
    9          6           0.017730861   -0.005297396    0.039195358
   10          1          -0.014740909    0.005732556   -0.021729100
   11          6           0.002296227   -0.005035806   -0.032087801
   12         17          -0.005126041    0.004453941    0.014731246
 -------------------------------------------------------------------
 Cartesian Forces:  Max     0.039195358 RMS     0.010441571

 GradGradGradGradGradGradGradGradGradGradGradGradGradGradGradGradGradGrad
 Berny optimization.
 Internal  Forces:  Max     0.023459592 RMS     0.004555411
 Search for a local minimum.
 Step number   4 out of a maximum of  64 on scan point     1 out of     9
 All quantities printed in internal units (Hartrees-Bohrs-Radians)
 Update second derivatives using D2CorX and points  1  2  3  4
 Trust test= 1.03D+00 RLast= 2.22D-02 DXMaxT set to 4.24D-01
     Eigenvalues ---    0.01962   0.01991   0.02004   0.02043   0.02070
     Eigenvalues ---    0.02132   0.02341   0.03155   0.10955   0.15870
     Eigenvalues ---    0.15979   0.16001   0.16013   0.19385   0.21875
     Eigenvalues ---    0.22124   0.24154   0.30208   0.33871   0.34361
     Eigenvalues ---    0.34369   0.34449   0.34554   0.39455   0.40635
     Eigenvalues ---    0.41904   0.44556   0.44978   0.473201000.00000
     Eigenvalues --- 1000.000001000.000001000.000001000.000001000.00000
     Eigenvalues --- 1000.000001000.000001000.000001000.000001000.00000
     Eigenvalues --- 1000.000001000.000001000.000001000.000001000.00000
     Eigenvalues --- 1000.000001000.000001000.000001000.000001000.00000
     Eigenvalues --- 1000.000001000.000001000.000001000.00000
 RFO step:  Lambda=-1.92926854D-06.
 Quartic linear search produced a step of  0.05771.
 Iteration  1 RMS(Cart)=  0.00114866 RMS(Int)=  0.00000105
 Iteration  2 RMS(Cart)=  0.00000111 RMS(Int)=  0.00000051
 Iteration  3 RMS(Cart)=  0.00000000 RMS(Int)=  0.00000051
 Iteration  1 RMS(Cart)=  0.00000032 RMS(Int)=  0.00000035
 Variable       Old X    -DE/DX   Delta X   Delta X   Delta X     New X
                                 (Linear)    (Quad)   (Total)
    R1        2.06614  -0.00001  -0.00001  -0.00004  -0.00006   2.06608
    R2        2.65929   0.00063   0.00006   0.00063   0.00069   2.65998
    R3        2.65878  -0.00032  -0.00016  -0.00016  -0.00032   2.65846
    R4        2.06749  -0.00001   0.00001  -0.00003  -0.00003   2.06747
    R5        2.65560   0.00025  -0.00011  -0.00049  -0.00060   2.65499
    R6        2.06651   0.00004  -0.00001   0.00011   0.00010   2.06661
    R7        2.66027   0.00043   0.00005   0.00029   0.00034   2.66061
    R8        2.06898  -0.00002   0.00001  -0.00007  -0.00006   2.06893
    R9        2.67377  -0.00049  -0.00011  -0.00031  -0.00042   2.67336
   R10        2.07189   0.00007  -0.00004   0.00020   0.00016   2.07205
   R11        2.68217  -0.00030   0.00016   0.00058   0.00073   2.68291
   R12        3.34088  -0.00011  -0.00013  -0.00040  -0.00052   3.34035
    A1        2.10752   0.00033   0.00000  -0.00035  -0.00035   2.10717
    A2        2.07837   0.00035   0.00005   0.00054   0.00059   2.07896
    A3        2.09681  -0.00067  -0.00006  -0.00019  -0.00025   2.09656
    A4        2.08677  -0.00020   0.00003  -0.00004  -0.00001   2.08676
    A5        2.09108   0.00033   0.00000   0.00022   0.00022   2.09130
    A6        2.10361  -0.00010  -0.00001  -0.00026  -0.00027   2.10334
    A7        2.10184  -0.00004  -0.00007  -0.00006  -0.00014   2.10170
    A8        2.07871   0.00021   0.00008   0.00006   0.00014   2.07885
    A9        2.10059  -0.00016   0.00000   0.00001   0.00001   2.10060
   A10        2.08564   0.00041  -0.00001  -0.00047  -0.00048   2.08516
   A11        2.13481  -0.00095  -0.00004  -0.00039  -0.00043   2.13437
   A12        2.06259   0.00055   0.00005   0.00086   0.00090   2.06349
   A13        1.96436   0.00779   0.00013   0.00092   0.00105   1.96541
   A14        2.04143   0.00110  -0.00006   0.00064   0.00058   2.04201
   A15        2.10922  -0.00199  -0.00023   0.00002  -0.00022   2.10900
   A16        2.11665   0.00018   0.00011  -0.00039  -0.00029   2.11637
   A17        2.00675   0.00606   0.00024   0.00024   0.00049   2.00723
   A18        2.06859  -0.00144  -0.00017  -0.00033  -0.00051   2.06808
    D1       -0.05380   0.00124  -0.00033  -0.00065  -0.00099  -0.05479
    D2        3.02499   0.00165  -0.00002  -0.00206  -0.00207   3.02292
    D3        3.12168   0.00052   0.00004  -0.00075  -0.00071   3.12096
    D4       -0.08271   0.00093   0.00036  -0.00216  -0.00180  -0.08451
    D5       -3.05227  -0.00396  -0.00004   0.00002  -0.00002  -3.05230
    D6       -0.36336   0.00694   0.00032  -0.00119  -0.00086  -0.36422
    D7        0.05600  -0.00324  -0.00041   0.00010  -0.00031   0.05569
    D8        2.74491   0.00766  -0.00005  -0.00110  -0.00115   2.74376
    D9       -3.09951   0.00066  -0.00008   0.00219   0.00212  -3.09739
   D10        0.11063   0.00034  -0.00016   0.00206   0.00190   0.11253
   D11       -0.02132   0.00107   0.00025   0.00078   0.00103  -0.02029
   D12       -3.09437   0.00074   0.00016   0.00065   0.00081  -3.09356
   D13        3.00710   0.00151  -0.00021   0.00000  -0.00021   3.00689
   D14       -0.11537   0.00080   0.00002   0.00010   0.00011  -0.11525
   D15       -0.06599   0.00119  -0.00029  -0.00013  -0.00042  -0.06642
   D16        3.09472   0.00047  -0.00006  -0.00004  -0.00010   3.09463
   D17        2.64407   0.00705  -0.00040   0.00042   0.00002   2.64409
   D18        0.08659  -0.00292  -0.00007  -0.00203  -0.00210   0.08449
   D19       -0.47864   0.00635  -0.00017   0.00053   0.00036  -0.47828
   D20       -3.03612  -0.00363   0.00016  -0.00192  -0.00176  -3.03788
   D21       -0.05601   0.00408   0.00026   0.00190   0.00216  -0.05385
   D22       -2.72946  -0.00908  -0.00023   0.00300   0.00278  -2.72668
   D23       -2.56254  -0.01030   0.00048  -0.00110  -0.00062  -2.56316
   D24        1.04720  -0.02346   0.00000   0.00000   0.00000   1.04720
         Item               Value     Threshold  Converged?
 Maximum Force            0.000247     0.000450     YES
 RMS     Force            0.000074     0.000300     YES
 Maximum Displacement     0.003726     0.001800     NO 
 RMS     Displacement     0.001149     0.001200     YES
 Predicted change in Energy=-1.079674D-06
 GradGradGradGradGradGradGradGradGradGradGradGradGradGradGradGradGradGrad

                          Input orientation:                          
 ---------------------------------------------------------------------
 Center     Atomic     Atomic              Coordinates (Angstroms)
 Number     Number      Type              X           Y           Z
 ---------------------------------------------------------------------
    1          6             0       -0.025463   -0.012922    0.111119
    2          1             0       -0.586212   -0.951328    0.128682
    3          6             0        1.381413   -0.016384    0.066055
    4          1             0        1.920229   -0.967933    0.100532
    5          6             0        2.078140    1.192282   -0.100129
    6          1             0        3.168971    1.196427   -0.177868
    7          6             0        1.361516    2.404053   -0.081818
    8          1             0        1.907704    3.352908   -0.082839
    9          6             0       -0.051895    2.445611   -0.038664
   10          1             0       -0.432243    3.348563    0.453562
   11          6             0       -0.729456    1.204918    0.092607
   12         17             0       -2.401025    1.093205   -0.471238
 ---------------------------------------------------------------------
                    Distance matrix (angstroms):
                    1          2          3          4          5
     1  C    0.000000
     2  H    1.093323   0.000000
     3  C    1.407601   2.179356   0.000000
     4  H    2.167458   2.506654   1.094056   0.000000
     5  C    2.433575   3.427272   1.404962   2.175254   0.000000
     6  H    3.427892   4.336845   2.173884   2.514224   1.093605
     7  C    2.793331   3.885426   2.425031   3.422821   1.407933
     8  H    3.886330   4.979037   3.413397   4.324749   2.167407
     9  C    2.463233   3.442775   2.850747   3.944735   2.472177
    10  H    3.403280   4.314895   3.842184   4.928579   3.355316
    11  C    1.406798   2.161300   2.438862   3.426686   2.814232
    12  Cl   2.684391   2.798851   3.978279   4.821665   4.495604
                    6          7          8          9         10
     6  H    0.000000
     7  C    2.175886   0.000000
     8  H    2.500047   1.094828   0.000000
     9  C    3.457429   1.414680   2.159899   0.000000
    10  H    4.242539   2.096736   2.400645   1.096482   0.000000
    11  C    3.907807   2.416715   3.405768   1.419733   2.194046
    12  Cl   5.578672   4.003334   4.880805   2.744911   3.133368
                   11         12
    11  C    0.000000
    12  Cl   1.767638   0.000000
 Symmetry turned off by external request.
 Stoichiometry    C6H5Cl
 Framework group  C1[X(C6H5Cl)]
 Deg. of freedom    30
 Full point group                 C1
 Rotational constants (GHZ):      5.4018506      1.5713973      1.2362793
 Standard basis: Aug-CC-pVDZ (5D, 7F)
 Integral buffers will be    131072 words long.
 Raffenetti 1 integral format.
 Two-electron integral symmetry is turned off.
   210 basis functions,   396 primitive gaussians,   224 cartesian basis functions
    29 alpha electrons       29 beta electrons
       nuclear repulsion energy       313.0081056201 Hartrees.
 NAtoms=   12 NActive=   12 NUniq=   12 SFac= 7.50D-01 NAtFMM=   80 NAOKFM=F Big=F
 One-electron integrals computed using PRISM.
 NBasis=   210 RedAO= T  NBF=   210
 NBsUse=   210 1.00D-06 NBFU=   210
 Initial guess read from the read-write file:
 Requested convergence on RMS density matrix=1.00D-08 within 128 cycles.
 Requested convergence on MAX density matrix=1.00D-06.
 Requested convergence on             energy=1.00D-06.
 No special actions if energy rises.
 Keep R1 integrals in memory in canonical form, NReq=   324243586.
 SCF Done:  E(RHF) =  -689.617039557     A.U. after   10 cycles
             Convg  =    0.8641D-08             -V/T =  2.0007
[...]
 ! D18   D(5,7,9,11)            -4.8603         -DE/DX =    0.0029              !
 ! D19   D(8,7,9,10)            27.4054         -DE/DX =   -0.0064              !
 ! D20   D(8,7,9,11)           174.0444         -DE/DX =    0.0036              !
 ! D21   D(7,9,11,1)             3.095          -DE/DX =   -0.004               !
 ! D22   D(7,9,11,12)          156.2309         -DE/DX =    0.0092              !
 ! D23   D(10,9,11,1)          146.8638         -DE/DX =    0.0102              !
 ! D24   D(10,9,11,12)         -60.0003         -DE/DX =    0.0234              !
 --------------------------------------------------------------------------------
 GradGradGradGradGradGradGradGradGradGradGradGradGradGradGradGradGradGrad

 Summary of Optimized Potential Surface Scan
                           1         2         3         4         5
     EIGENVALUES --  -690.58267-690.59364-690.60147-690.60611-690.60762
           R1           1.09332   1.09309   1.09291   1.09278   1.09275
           R2           1.40760   1.40729   1.40711   1.40706   1.40712
           R3           1.40680   1.40615   1.40566   1.40528   1.40506
           R4           1.09406   1.09404   1.09401   1.09397   1.09396
           R5           1.40496   1.40609   1.40688   1.40728   1.40741
           R6           1.09361   1.09355   1.09349   1.09347   1.09344
           R7           1.40793   1.40763   1.40744   1.40742   1.40745
           R8           1.09483   1.09445   1.09419   1.09401   1.09397
           R9           1.41468   1.41133   1.40903   1.40754   1.40704
           R10          1.09648   1.09479   1.09360   1.09290   1.09274
           R11          1.41973   1.41322   1.40865   1.40597   1.40515
           R12          1.76764   1.76178   1.75731   1.75496   1.75403
           A1         120.73208 120.93434 121.08131 121.17521 121.20902
           A2         119.11553 119.49722 119.76179 119.92484 119.97024
           A3         120.12394 119.56030 119.15578 118.89992 118.82074
           A4         119.56237 119.47124 119.40539 119.36994 119.34152
           A5         119.82284 120.11946 120.33386 120.46218 120.51538
           A6         120.51237 120.35048 120.23157 120.15764 120.14310
           A7         120.41873 120.28999 120.20176 120.14929 120.13747
           A8         119.10912 119.38339 119.56962 119.69848 119.73029
           A9         120.35533 120.25670 120.19289 120.13958 120.13224
           A10        119.47101 119.75941 119.97081 120.08396 120.13756
           A11        122.29063 121.49944 120.95471 120.61678 120.51307
           A12        118.22931 118.74000 119.07436 119.29792 119.34937
           A13        112.60989 116.17964 118.87887 120.60455 121.20953
           A14        116.99842 117.79160 118.35173 118.69767 118.82400
           A15        120.83678 120.32365 120.08352 119.97719 119.96647
           A16        121.25881 121.38083 121.48767 121.57428 121.59651
           A17        115.00594 116.72112 118.06313 118.90381 119.19915
           A18        118.49244 118.74870 118.98098 119.14113 119.20434
           D1          -3.13914  -2.03145  -1.09742  -0.29377   0.01972
           D2         173.20075 175.18943 176.94216 178.54354-180.00324
           D3         178.81800 179.01131 179.28949 179.65161-180.00472
           D4          -4.84210  -3.76782  -2.67093  -1.51109  -0.02768
           D5        -174.88383-175.88583-177.11639-178.50882-179.98891
           D6         -20.86841 -16.20265 -11.08571  -5.65507  -0.00028
           D7           3.19057   3.08654   2.50190   1.54510   0.03522
           D8         157.20599 162.76972 168.53259 174.39886 180.02385
           D9        -177.46740-178.25749-178.90559-179.49694 179.98971
           D10          6.44767   4.77539   3.26384   1.79520   0.01687
           D11         -1.16281  -1.06127  -0.88228  -0.66882  -0.03344
           D12       -177.24774-178.02839-178.71285-179.37668 179.99373
           D13        172.28204 174.44454 176.44623 178.33094-180.00405
           D14         -6.60351  -5.16146  -3.68098  -2.09132  -0.01277
           D15         -3.80544  -2.52360  -1.38454  -0.37705   0.02311
           D16        177.30901 177.87039 178.48825 179.20070-179.98561
           D17        151.49530 157.90246 164.90343 172.35922-180.00054
           D18          4.84101   4.38560   3.44443   2.08658   0.01961
           D19        -27.40347 -21.70745 -15.22266  -8.05975  -0.00918
           D20       -174.05776-175.22430-176.68166-178.33239 180.01097
           D21         -3.08534  -3.33663  -2.86495  -1.82749  -0.03122
           D22       -156.22737-162.62083-168.77097-174.66471 179.98015
           D23       -146.85803-155.71586-164.09401-172.16274 179.98868
           D24         59.99993  44.99994  29.99997  15.00003   0.00005
                           6         7         8         9
     EIGENVALUES --  -690.60611-690.60147-690.59364-690.58267
           R1           1.09279   1.09293   1.09310   1.09333
           R2           1.40704   1.40707   1.40725   1.40762
           R3           1.40539   1.40563   1.40618   1.40682
           R4           1.09397   1.09399   1.09403   1.09406
           R5           1.40733   1.40688   1.40609   1.40491
           R6           1.09346   1.09352   1.09355   1.09361
           R7           1.40738   1.40741   1.40761   1.40806
           R8           1.09403   1.09418   1.09444   1.09481
           R9           1.40764   1.40905   1.41132   1.41450
           R10          1.09291   1.09362   1.09480   1.09649
           R11          1.40595   1.40864   1.41324   1.41973
           R12          1.75501   1.75740   1.76172   1.76761
           A1         121.17421 121.08094 120.93166 120.71537
           A2         119.91316 119.76221 119.49467 119.12889
           A3         118.91259 119.15583 119.56557 120.12707
           A4         119.36448 119.40871 119.47020 119.55546
           A5         120.45938 120.32942 120.11951 119.82145
           A6         120.16617 120.23289 120.35120 120.52236
           A7         120.15208 120.20207 120.29085 120.42448
           A8         119.69147 119.57515 119.38085 119.10995
           A9         120.14405 120.18691 120.25774 120.34898
           A10        120.09836 119.96585 119.76022 119.46138
           A11        120.62792 120.95440 121.50073 122.28547
           A12        119.27263 119.07965 118.73797 118.24420
           A13        120.57230 118.86782 116.17622 112.61879
           A14        118.69621 118.34497 117.79463 117.00884
           A15        120.01575 120.09573 120.32076 120.81301
           A16        121.56258 121.49303 121.37247 121.25101
           A17        118.90446 118.05822 116.72316 114.99413
           A18        119.14929 118.97272 118.75480 118.51074
           D1           0.29404   1.08088   2.02716   3.15807
           D2        -178.55941-176.96561-175.18731-173.21242
           D3        -179.63448-179.28707-179.01331-178.80685
           D4           1.51207   2.66644   3.77222   4.82266
           D5         178.51419 177.08989 175.88460 174.88541
           D6           5.68683  11.09689  16.20072  20.86829
           D7          -1.55637  -2.54710  -3.09002  -3.18075
           D8        -174.38373-168.54010-162.77390-157.19787
           D9         179.50721 178.94879 178.26145 177.47408
           D10         -1.77239  -3.22522  -4.78510  -6.43753
           D11          0.66298   0.91848   1.07175   1.13923
           D12        179.38338 178.74446 178.02520 177.22761
           D13       -178.32738-176.45822-174.44105-172.27863
           D14          2.05501   3.65632   5.17641   6.61316
           D15          0.39313   1.36810   2.51343   3.81278
           D16       -179.22449-178.51736-177.86912-177.29543
           D17       -172.36977-164.90968-157.90879-151.49931
           D18         -2.06076  -3.46709  -4.39987  -4.86031
           D19          8.00949  15.20386  21.71246  27.40538
           D20        178.31849 176.64645 175.22138 174.04438
           D21          1.82513   2.92319   3.34477   3.09497
           D22        174.63537 168.79167 162.62881 156.23094
           D23        172.18950 164.13113 155.71567 146.86375
           D24        -15.00026 -30.00038 -45.00029 -60.00027
                          Input orientation:                          
 ---------------------------------------------------------------------
 Center     Atomic     Atomic              Coordinates (Angstroms)
 Number     Number      Type              X           Y           Z
 ---------------------------------------------------------------------
    1          6             0       -0.025646   -0.013440   -0.103108
    2          1             0       -0.586185   -0.952079   -0.114402
    3          6             0        1.381317   -0.016703   -0.060191
    4          1             0        1.919946   -0.968514   -0.090347
    5          6             0        2.078291    1.192864    0.097715
    6          1             0        3.169246    1.197564    0.173651
    7          6             0        1.361583    2.404631    0.073507
    8          1             0        1.907932    3.353356    0.067986
    9          6             0       -0.051730    2.445831    0.032707
   10          1             0       -0.433217    3.345801   -0.464102
   11          6             0       -0.729649    1.204489   -0.090353
   12         17             0       -2.400210    1.095600    0.476936
 ---------------------------------------------------------------------
                    Distance matrix (angstroms):
                    1          2          3          4          5
     1  C    0.000000
     2  H    1.093332   0.000000
     3  C    1.407621   2.179204   0.000000
     4  H    2.167408   2.506300   1.094063   0.000000
     5  C    2.433526   3.427128   1.404905   2.175315   0.000000
     6  H    3.427894   4.336727   2.173894   2.514426   1.093605
     7  C    2.793325   3.885436   2.425103   3.422970   1.408061
     8  H    3.886298   4.979021   3.413363   4.324786   2.167402
     9  C    2.463157   3.442830   2.850672   3.944668   2.472073
    10  H    3.403076   4.314796   3.842149   4.928527   3.355361
    11  C    1.406817   2.161469   2.438934   3.426703   2.814255
    12  Cl   2.684209   2.798814   3.978149   4.821423   4.495580
                    6          7          8          9         10
     6  H    0.000000
     7  C    2.175934   0.000000
     8  H    2.499904   1.094809   0.000000
     9  C    3.457272   1.414503   2.159890   0.000000
    10  H    4.242569   2.096695   2.400865   1.096493   0.000000
    11  C    3.907829   2.416701   3.405809   1.419735   2.193804
    12  Cl   5.578640   4.003424   4.881065   2.745145   3.133372
                   11         12
    11  C    0.000000
    12  Cl   1.767611   0.000000
 Symmetry turned off by external request.
 Stoichiometry    C6H5Cl
 Framework group  C1[X(C6H5Cl)]
 Deg. of freedom    30
 Full point group                 C1
 Rotational constants (GHZ):      5.4018552      1.5714119      1.2362882

 **********************************************************************

            Population analysis using the SCF density.

 **********************************************************************

 Alpha  occ. eigenvalues -- -104.83746 -11.31986 -11.26745 -11.26551 -11.26497
 Alpha  occ. eigenvalues --  -11.26388 -11.26160 -10.56309  -8.03083  -8.02754
 Alpha  occ. eigenvalues --   -8.02742  -1.18538  -1.11542  -1.03195  -0.99654
 Alpha  occ. eigenvalues --   -0.84408  -0.82133  -0.70580  -0.65061  -0.64407
 Alpha  occ. eigenvalues --   -0.60099  -0.58417  -0.54629  -0.51433  -0.50275
 Alpha  occ. eigenvalues --   -0.46271  -0.45231  -0.35030  -0.33418
 Alpha virt. eigenvalues --    0.03269   0.04009   0.04643   0.05919   0.06332
 Alpha virt. eigenvalues --    0.07074   0.09033   0.09766   0.10386   0.12114
 Alpha virt. eigenvalues --    0.13083   0.13515   0.13930   0.14300   0.14951
 Alpha virt. eigenvalues --    0.15420   0.15918   0.16382   0.17163   0.17509
 Alpha virt. eigenvalues --    0.17995   0.18486   0.19034   0.19350   0.19681
 Alpha virt. eigenvalues --    0.20098   0.21211   0.22296   0.24723   0.25726
 Alpha virt. eigenvalues --    0.28455   0.29303   0.29825   0.29999   0.31249
 Alpha virt. eigenvalues --    0.32456   0.32705   0.33501   0.35422   0.36136
 Alpha virt. eigenvalues --    0.37590   0.38440   0.38884   0.39994   0.41477
 Alpha virt. eigenvalues --    0.41702   0.42789   0.43395   0.43965   0.47578
 Alpha virt. eigenvalues --    0.49189   0.49438   0.51464   0.53107   0.54166
 Alpha virt. eigenvalues --    0.55446   0.55722   0.56129   0.56921   0.57926
 Alpha virt. eigenvalues --    0.59068   0.60810   0.61430   0.62930   0.63169
 Alpha virt. eigenvalues --    0.64562   0.65490   0.67111   0.67648   0.68245
 Alpha virt. eigenvalues --    0.68747   0.70034   0.71558   0.72479   0.73548
 Alpha virt. eigenvalues --    0.74445   0.76216   0.77214   0.78002   0.80136
 Alpha virt. eigenvalues --    0.82703   0.83118   0.84713   0.85646   0.86436
 Alpha virt. eigenvalues --    0.86777   0.88526   0.89738   0.90761   0.92022
 Alpha virt. eigenvalues --    0.93116   0.94591   0.95760   0.96979   0.97740
 Alpha virt. eigenvalues --    0.99671   1.00346   1.01635   1.03394   1.04936
 Alpha virt. eigenvalues --    1.08204   1.09621   1.11500   1.17098   1.18155
 Alpha virt. eigenvalues --    1.21697   1.24640   1.30399   1.35110   1.38621
 Alpha virt. eigenvalues --    1.42534   1.44472   1.45511   1.46026   1.47489
 Alpha virt. eigenvalues --    1.48775   1.49516   1.52714   1.53343   1.55195
 Alpha virt. eigenvalues --    1.58045   1.59252   1.60532   1.61655   1.62505
 Alpha virt. eigenvalues --    1.63507   1.64328   1.66701   1.68068   1.71029
 Alpha virt. eigenvalues --    1.71296   1.73118   1.75087   1.76479   1.80635
 Alpha virt. eigenvalues --    1.82016   1.84247   1.86703   1.87967   1.91490
 Alpha virt. eigenvalues --    1.93086   1.95872   1.97262   1.98752   2.00826
 Alpha virt. eigenvalues --    2.04776   2.07933   2.09407   2.11059   2.14827
 Alpha virt. eigenvalues --    2.15793   2.17916   2.20066   2.20191   2.23260
 Alpha virt. eigenvalues --    2.26181   2.29895   2.30966   2.34780   2.36204
 Alpha virt. eigenvalues --    2.38531   2.39348   2.42637   2.56852   2.58589
 Alpha virt. eigenvalues --    2.64449   2.66285   2.73807   2.76280   2.83360
 Alpha virt. eigenvalues --    2.85719   2.93864   2.99463   3.05926   3.07217
 Alpha virt. eigenvalues --    3.11527   3.18847   3.27703   3.45193   3.69483
 Alpha virt. eigenvalues --    4.28022
          Condensed to atoms (all electrons):
              1          2          3          4          5          6
     1  C    6.294066  -0.236402  -0.742342   0.204687   0.822638  -0.083048
     2  H   -0.236402   1.606272   0.156918  -0.084815  -0.071475  -0.004344
     3  C   -0.742342   0.156918   6.525032  -0.212604  -0.810162   0.164526
     4  H    0.204687  -0.084815  -0.212604   1.528510   0.140541  -0.068519
     5  C    0.822638  -0.071475  -0.810162   0.140541   6.765974  -0.243687
     6  H   -0.083048  -0.004344   0.164526  -0.068519  -0.243687   1.523216
     7  C   -0.944780   0.073198   0.810587  -0.105684  -0.765853   0.188409
     8  H    0.071593   0.003855  -0.092580  -0.005987   0.115779  -0.074256
     9  C    0.596992  -0.020138  -0.865853   0.064530   0.538179  -0.064611
    10  H    0.007425  -0.004639   0.049713   0.003125  -0.032381  -0.001162
    11  C   -0.553286  -0.010110   0.488642  -0.084832  -0.839667   0.056225
    12  Cl  -0.180054  -0.086022  -0.010042   0.002276   0.034193  -0.000019
              7          8          9         10         11         12
     1  C   -0.944780   0.071593   0.596992   0.007425  -0.553286  -0.180054
     2  H    0.073198   0.003855  -0.020138  -0.004639  -0.010110  -0.086022
     3  C    0.810587  -0.092580  -0.865853   0.049713   0.488642  -0.010042
     4  H   -0.105684  -0.005987   0.064530   0.003125  -0.084832   0.002276
     5  C   -0.765853   0.115779   0.538179  -0.032381  -0.839667   0.034193
     6  H    0.188409  -0.074256  -0.064611  -0.001162   0.056225  -0.000019
     7  C    5.948977  -0.107044  -0.334662   0.156818   0.556066   0.005297
     8  H   -0.107044   1.583284   0.070631  -0.108142  -0.058090   0.000175
     9  C   -0.334662   0.070631   6.126193  -0.094289  -0.297924  -0.280533
    10  H    0.156818  -0.108142  -0.094289   1.247416  -0.040311  -0.015527
    11  C    0.556066  -0.058090  -0.297924  -0.040311   7.156994   0.450821
    12  Cl   0.005297   0.000175  -0.280533  -0.015527   0.450821  17.298126
 Mulliken atomic charges:
              1
     1  C    0.742510
     2  H   -0.322300
     3  C    0.538164
     4  H   -0.381227
     5  C    0.345919
     6  H   -0.392729
     7  C    0.518670
     8  H   -0.399221
     9  C    0.561483
    10  H   -0.168047
    11  C   -0.824530
    12  Cl  -0.218692
 Sum of Mulliken charges=   0.00000
 Atomic charges with hydrogens summed into heavy atoms:
              1
     1  C    0.420210
     2  H    0.000000
     3  C    0.156937
     4  H    0.000000
     5  C   -0.046809
     6  H    0.000000
     7  C    0.119449
     8  H    0.000000
     9  C    0.393436
    10  H    0.000000
    11  C   -0.824530
    12  Cl  -0.218692
 Sum of Mulliken charges=   0.00000
 Electronic spatial extent (au):  <R**2>=  1199.1180
 Charge=     0.0000 electrons
 Dipole moment (field-independent basis, Debye):
    X=     2.3289    Y=    -0.1452    Z=    -0.5326  Tot=     2.3935
 Quadrupole moment (field-independent basis, Debye-Ang):
   XX=   -47.8551   YY=   -43.1389   ZZ=   -52.7304
   XY=     2.9566   XZ=     0.7323   YZ=    -1.4615
 Traceless Quadrupole moment (field-independent basis, Debye-Ang):
   XX=     0.0531   YY=     4.7692   ZZ=    -4.8223
   XY=     2.9566   XZ=     0.7323   YZ=    -1.4615
 Octapole moment (field-independent basis, Debye-Ang**2):
  XXX=    35.1568  YYY=  -152.6978  ZZZ=   -16.9172  XYY=    14.1598
  XXY=   -56.8564  XXZ=    -3.3575  XZZ=     1.6254  YZZ=   -61.6019
  YYZ=   -11.3988  XYZ=     1.8442
 Hexadecapole moment (field-independent basis, Debye-Ang**3):
 XXXX=  -802.6145 YYYY=  -646.0618 ZZZZ=   -84.8343 XXXY=    34.7797
 XXXZ=    32.3381 YYYX=    35.0799 YYYZ=   -43.0108 ZZZX=    37.3670
 ZZZY=   -24.7037 XXYY=  -251.0343 XXZZ=  -162.5014 YYZZ=  -144.6547
 XXYZ=    -5.0773 YYXZ=    17.3968 ZZXY=    -1.1335
 N-N= 3.130097833900D+02 E-N=-2.255428610174D+03  KE= 6.891205642116D+02
 1\1\GINC-N082\Scan\RMP2-FC\Aug-CC-pVDZ\C6H5Cl1\FYLIN\20-Mar-2017\0\\# 
 MP2/aug-cc-pVDZ opt=modredundant nosymm geom=connectivity\\CHLB OPTIMI
 ZED AT MP2/aug-cc-pVDZ\\0,1\C,-0.0256455537,-0.0134396637,-0.103108165
 7\H,-0.5861846812,-0.9520790991,-0.1144018369\C,1.3813174147,-0.016703
 0868,-0.0601913834\H,1.9199459256,-0.9685141648,-0.0903468723\C,2.0782
 90812,1.1928640122,0.0977148861\H,3.16924639,1.1975635994,0.1736512003
 \C,1.3615832525,2.4046311153,0.0735073365\H,1.9079322015,3.3533558679,
 0.0679862032\C,-0.051730454,2.4458314979,0.0327074935\H,-0.433216645,3
 .3458008465,-0.4641021929\C,-0.7296486802,1.2044893465,-0.0903530704\C
 l,-2.4002099821,1.0955997285,0.4769364021\\Version=AM64L-G03RevD.02\HF
 =-689.6170396,-689.6305009,-689.6401709,-689.6459854,-689.6479355,-689
 .6459789,-689.6401721,-689.6305007,-689.6170431\MP2=-690.5826745,-690.
 5936441,-690.6014711,-690.6061131,-690.6076241,-690.606113,-690.601470
 9,-690.5936439,-690.5826743\RMSD=8.641e-09,3.084e-09,4.299e-09,2.180e-
 09,4.840e-09,5.184e-09,7.614e-09,4.015e-09,4.761e-09\Thermal=0.,0.,0.,
 0.,0.,0.,0.,0.,0.\PG=C01 [X(C6H5Cl1)]\\@


 THE LENGTH OF A MEETING IS PROPORTIONAL TO THE
 SQUARE OF THE PARTICIPANTS.
 Job cpu time:  1 days  7 hours 36 minutes  5.0 seconds.
 File lengths (MBytes):  RWF=     35 Int=      0 D2E=      0 Chk=     10 Scr=      1
 Normal termination of Gaussian 03 at Mon Mar 20 19:06:43 2017.
