 Entering Gaussian System, Link 0=g03
 Initial command:
 /opt/mackerell/apps/gaussian/g03/l1.exe /tmp/fylin/gauss15715/Gau-15718.inp -scrdir=/tmp/fylin/gauss15715/
 Entering Link 1 = /opt/mackerell/apps/gaussian/g03/l1.exe PID=     15720.
  
 Copyright (c) 1988,1990,1992,1993,1995,1998,2003,2004, Gaussian, Inc.
                  All Rights Reserved.
  
 This is the Gaussian(R) 03 program.  It is based on the
 the Gaussian(R) 98 system (copyright 1998, Gaussian, Inc.),
 the Gaussian(R) 94 system (copyright 1995, Gaussian, Inc.),
 the Gaussian 92(TM) system (copyright 1992, Gaussian, Inc.),
 the Gaussian 90(TM) system (copyright 1990, Gaussian, Inc.),
 the Gaussian 88(TM) system (copyright 1988, Gaussian, Inc.),
 the Gaussian 86(TM) system (copyright 1986, Carnegie Mellon
 University), and the Gaussian 82(TM) system (copyright 1983,
 Carnegie Mellon University). Gaussian is a federally registered
 trademark of Gaussian, Inc.
  
 This software contains proprietary and confidential information,
 including trade secrets, belonging to Gaussian, Inc.
  
 This software is provided under written license and may be
 used, copied, transmitted, or stored only in accord with that
 written license.
  
 The following legend is applicable only to US Government
 contracts under FAR:
  
                    RESTRICTED RIGHTS LEGEND
  
 Use, reproduction and disclosure by the US Government is
 subject to restrictions as set forth in subparagraphs (a)
 and (c) of the Commercial Computer Software - Restricted
 Rights clause in FAR 52.227-19.
  
 Gaussian, Inc.
 340 Quinnipiac St., Bldg. 40, Wallingford CT 06492
  
  
 ---------------------------------------------------------------
 Warning -- This program may not be used in any manner that
 competes with the business of Gaussian, Inc. or will provide
 assistance to any competitor of Gaussian, Inc.  The licensee
 of this program is prohibited from giving any competitor of
 Gaussian, Inc. access to this program.  By using this program,
 the user acknowledges that Gaussian, Inc. is engaged in the
 business of creating and licensing software in the field of
 computational chemistry and represents and warrants to the
 licensee that it is not a competitor of Gaussian, Inc. and that
 it will not use this program in any manner prohibited above.
 ---------------------------------------------------------------
  

 Cite this work as:
 Gaussian 03, Revision D.02,
 M. J. Frisch, G. W. Trucks, H. B. Schlegel, G. E. Scuseria, 
 M. A. Robb, J. R. Cheeseman, J. A. Montgomery, Jr., T. Vreven, 
 K. N. Kudin, J. C. Burant, J. M. Millam, S. S. Iyengar, J. Tomasi, 
 V. Barone, B. Mennucci, M. Cossi, G. Scalmani, N. Rega, 
 G. A. Petersson, H. Nakatsuji, M. Hada, M. Ehara, K. Toyota, 
 R. Fukuda, J. Hasegawa, M. Ishida, T. Nakajima, Y. Honda, O. Kitao, 
 H. Nakai, M. Klene, X. Li, J. E. Knox, H. P. Hratchian, J. B. Cross, 
 V. Bakken, C. Adamo, J. Jaramillo, R. Gomperts, R. E. Stratmann, 
 O. Yazyev, A. J. Austin, R. Cammi, C. Pomelli, J. W. Ochterski, 
 P. Y. Ayala, K. Morokuma, G. A. Voth, P. Salvador, J. J. Dannenberg, 
 V. G. Zakrzewski, S. Dapprich, A. D. Daniels, M. C. Strain, 
 O. Farkas, D. K. Malick, A. D. Rabuck, K. Raghavachari, 
 J. B. Foresman, J. V. Ortiz, Q. Cui, A. G. Baboul, S. Clifford, 
 J. Cioslowski, B. B. Stefanov, G. Liu, A. Liashenko, P. Piskorz, 
 I. Komaromi, R. L. Martin, D. J. Fox, T. Keith, M. A. Al-Laham, 
 C. Y. Peng, A. Nanayakkara, M. Challacombe, P. M. W. Gill, 
 B. Johnson, W. Chen, M. W. Wong, C. Gonzalez, and J. A. Pople, 
 Gaussian, Inc., Wallingford CT, 2004.
 
 ******************************************
 Gaussian 03:  AM64L-G03RevD.02  1-Mar-2006
                13-Apr-2016 
 ******************************************
 %mem=16MW
 ---------------------
 #MP2/aug-cc-pVDZ scan
 ---------------------
 1/38=1,60=1/1,8;
 2/17=6,18=5,29=3,40=1/2;
 3/5=16,7=10,11=9,16=1,25=1,30=1/1,2,3;
 4//1;
 5/5=2,38=5/2;
 8/10=1/1;
 9/16=-3/6;
 6/7=2,8=2,9=2,10=2,18=1/1;
 1/60=1/8(1);
 99/9=1/99;
 2/29=3/2;
 3/5=16,7=10,11=9,16=1,25=1,30=1/1,2,3;
 4/5=5,16=3/1;
 5/5=2,38=5/2;
 8/10=1/1;
 9/16=-3/6;
 1/60=1/8(-6);
 99/9=1/99;
 ---------------------------------------
 CL1...OHH 90.0 degrees, mp2/aug-cc-pVDZ
 ---------------------------------------
 Symbolic Z-matrix:
 Charge =  0 Multiplicity = 1
 C1                    0.        0.33802   0.43738 
 CL11                  1.47313  -0.55937  -0.07126 
 CL12                 -1.47313  -0.55936  -0.07126 
 H13                   0.        0.32697   1.53356 
 C2                    0.        1.73771  -0.14619 
 H21                  -0.89818   2.27521   0.19308 
 H22                   0.89813   2.27524   0.19318 
 H23                   0.00007   1.68665  -1.2441 
 x                    CL11  1.       C1    90.      C2    0.       0
 o1w                  CL11 roh      x     90.      C1    180.     0
 h1w                  o1w   0.9572   CL11  127.74   x     90.      0
 h2w                  o1w   0.9572   CL11  127.74   x    -90.      0
       Variables:
  roh                   1.5    Scan 45    0.1    
 
 Scan the potential surface.
 Variable   Value     No. Steps Step-Size
 -------- ----------- --------- ---------
     1       1.500000      45      0.1000
 A total of     46 points will be computed.
 ------------------------------------------------------------------------
                         Z-MATRIX (ANGSTROMS AND DEGREES)
 CD Cent Atom  N1     Length/X     N2    Alpha/Y     N3     Beta/Z      J
 ------------------------------------------------------------------------
   1   1  C     0   0.000000          0.338016          0.437380
   2   2  Cl    0   1.473127         -0.559367         -0.071261
   3   3  Cl    0  -1.473129         -0.559363         -0.071261
   4   4  H     0   0.000002          0.326972          1.533563
   5   5  C     0   0.000004          1.737706         -0.146189
   6   6  H     0  -0.898183          2.275207          0.193075
   7   7  H     0   0.898132          2.275242          0.193175
   8   8  H     0   0.000066          1.686646         -1.244096
   9      X     2   1.000000(  8)   1   90.000( 18)   5    0.000( 27)   0
  10   9  O     2   1.500000(  9)   9   90.000( 19)   1  180.000( 28)   0
  11  10  H    10   0.957200( 10)   2  127.740( 20)   9   90.000( 29)   0
  12  11  H    10   0.957200( 11)   2  127.740( 21)   9  -90.000( 30)   0
 ------------------------------------------------------------------------
                         Z-Matrix orientation:                         
 ---------------------------------------------------------------------
 Center     Atomic     Atomic              Coordinates (Angstroms)
 Number     Number      Type              X           Y           Z
 ---------------------------------------------------------------------
    1          6             0        0.000000    0.338016    0.437380
    2         17             0        1.473127   -0.559367   -0.071261
    3         17             0       -1.473129   -0.559363   -0.071261
    4          1             0        0.000002    0.326972    1.533563
    5          6             0        0.000004    1.737706   -0.146189
    6          1             0       -0.898183    2.275207    0.193075
    7          1             0        0.898132    2.275242    0.193175
    8          1             0        0.000066    1.686646   -1.244096
    9         -1             0        1.780915    0.239135   -0.588621
   10          8             0        2.701849   -1.307866   -0.495514
   11          1             0        3.548143   -1.345325   -0.049851
   12          1             0        2.815404   -1.855118   -1.272594
 ---------------------------------------------------------------------
                    Distance matrix (angstroms):
                    1          2          3          4          5
     1  C    0.000000
     2  Cl   1.798365   0.000000
     3  Cl   1.798364   2.946256   0.000000
     4  H    1.096239   2.351841   2.351843   0.000000
     5  C    1.516471   2.729881   2.729883   2.193567   0.000000
     6  H    2.149215   3.705104   2.904346   2.529677   1.100340
     7  H    2.149214   2.904402   3.705103   2.529631   1.100339
     8  H    2.155496   2.930874   2.930939   3.092588   1.099094
     9  X    2.057697   1.000000   3.390290   2.771829   2.369200
    10  O    3.298365   1.500000   4.262709   3.753642   4.086258
    11  H    3.957316   2.218981   5.082457   4.230021   4.701452
    12  H    3.957316   2.218981   4.638286   4.534592   4.701452
                    6          7          8          9         10
     6  H    0.000000
     7  H    1.796315   0.000000
     8  H    1.794078   1.794078   0.000000
     9  X    3.454592   2.352923   2.386705   0.000000
    10  O    5.125700   4.070178   4.102086   1.802776   0.000000
    11  H    5.739083   4.493342   4.817460   2.433902   0.957200
    12  H    5.744432   4.783752   4.524492   2.433902   0.957200
                   11         12
    11  H    0.000000
    12  H    1.513901   0.000000
                           Interatomic angles:
     Cl2-C1-Cl3=109.9993      Cl2-C1-H4=106.1285      Cl3-C1-H4=106.1287
     Cl2-H4-Cl3= 77.5659      Cl2-C1-C5=110.5931      Cl3-C1-C5=110.5933
     Cl2-C5-Cl3= 65.317        H4-C1-C5=113.2098      Cl2-H4-C5= 73.7303
      Cl3-H4-C5= 73.7303      Cl2-C1-H6=139.4601      Cl3-C1-H6= 94.3177
     Cl2-Cl3-H6= 78.5824       H4-C1-H6= 97.0507      Cl2-H4-H6= 98.6881
      Cl3-H4-H6= 72.9177       C1-C5-H6=109.4034      Cl2-C5-H6=147.4653
      Cl3-C5-H6= 87.827        H4-C5-H6= 94.4766      Cl2-C1-H7= 94.3202
      Cl3-C1-H7=139.4602     Cl3-Cl2-H7= 78.5814       H4-C1-H7= 97.0479
      Cl2-H4-H7= 72.9203      Cl3-H4-H7= 98.6893       C1-C5-H7=109.4033
      Cl2-C5-H7= 87.8303      Cl3-C5-H7=147.465        H4-C5-H7= 94.4738
       C1-H7-H6= 65.2979      Cl2-H7-H6=101.4171      Cl3-H6-H7=101.4191
       H4-H7-H6= 69.2048       H6-C5-H7=109.4233      Cl2-C1-H8= 95.2527
      Cl3-C1-H8= 95.2555     Cl2-H8-Cl3= 60.3468       H4-C1-H8=141.8458
      H4-Cl2-H8= 70.6972      H4-Cl3-H8= 70.6959       C1-C5-H8=109.9699
      Cl2-C5-H8= 89.3294      Cl3-C5-H8= 89.3329       H4-C5-H8=137.3122
       C1-H6-H8= 65.5516      Cl2-H8-H6=100.5143      Cl3-H6-H8= 72.9042
       H4-H6-H8= 89.6599       H6-C5-H8=109.3133       C1-H7-H8= 65.5516
      Cl2-H7-H8= 72.9005      Cl3-H8-H7=100.512        H4-H7-H8= 89.6614
       H7-C5-H8=109.3133       H6-H8-H7= 60.0825      C1-Cl2-X9= 90.    
      Cl3-C1-X9=122.9536     Cl3-Cl2-X9=107.9259       H4-C1-X9=119.8747
      H4-Cl2-X9=104.1753      Cl3-H4-X9= 82.4186       C5-C1-X9= 81.5164
      Cl2-X9-C5=100.2005      Cl3-C5-X9= 83.0228       H4-C5-X9= 74.7051
       H6-C1-X9=110.3854       H6-H4-X9= 81.189        H6-C5-X9=168.5649
       H7-C1-X9= 67.9745      Cl2-X9-H7=113.8038       H4-H7-X9= 69.0711
       C5-H7-X9= 77.3509       H6-H7-X9=112.0336       H8-C1-X9= 68.9658
      Cl2-X9-H8=113.3727      Cl3-H8-X9= 78.4857       H4-X9-H8= 73.2403
       H8-C5-X9= 77.5276       H6-H8-X9=110.6429       H8-H7-X9= 68.7597
     C1-Cl2-O10=180.        Cl3-Cl2-O10=144.9997     H4-Cl2-O10=153.3991
     C5-Cl2-O10=148.6669     H7-Cl2-O10=132.4487     H8-Cl2-O10=132.9157
      C1-X9-O10=117.2332     X9-Cl2-O10= 90.          H4-X9-O10=108.4133
      C5-X9-O10=156.5105      H7-X9-O10=156.5026      H8-X9-O10=156.3186
     C1-Cl2-H11=160.0546    Cl3-Cl2-H11=159.2478     H4-Cl2-H11=135.4497
     C5-Cl2-H11=143.4103     H7-Cl2-H11=122.0012     H8-Cl2-H11=138.1836
      C1-X9-H11=123.3211     X9-Cl2-H11= 90.          H4-X9-H11=108.5218
      C5-X9-H11=156.3806      H7-X9-H11=139.6592      H8-X9-H11=175.8589
    Cl2-O10-H11=127.74       X9-O10-H11=120.6159     C1-Cl2-H12=160.0546
    Cl3-Cl2-H12=127.2222     H4-Cl2-H12=165.5563     C5-Cl2-H12=143.4103
     H7-Cl2-H12=137.6424     H8-Cl2-H12=122.3352      C1-X9-H12=123.3211
     X9-Cl2-H12= 90.          H4-X9-H12=121.0314      C5-X9-H12=156.3806
      H7-X9-H12=175.8933      H8-X9-H12=139.6246    Cl2-O10-H12=127.74  
     X9-O10-H12=120.6159    Cl2-H12-H11= 70.0546     X9-H12-H11= 71.8803
    H11-O10-H12=104.52  
 Stoichiometry    C2H6Cl2O
 Framework group  C1[X(C2H6Cl2O)]
 Deg. of freedom    27
 Full point group                 C1
 Largest Abelian subgroup         C1      NOp   1
 Largest concise Abelian subgroup C1      NOp   1
                         Standard orientation:                         
 ---------------------------------------------------------------------
 Center     Atomic     Atomic              Coordinates (Angstroms)
 Number     Number      Type              X           Y           Z
 ---------------------------------------------------------------------
    1          6             0       -0.670503    0.408247    0.444299
    2         17             0        1.053870    0.019103    0.113813
    3         17             0       -1.721080   -0.949265   -0.091948
    4          1             0       -0.768176    0.456367    1.535117
    5          6             0       -1.068804    1.696900   -0.248822
    6          1             0       -2.119753    1.926626   -0.017571
    7          1             0       -0.427904    2.517075    0.107977
    8          1             0       -0.950847    1.590150   -1.336341
    9          8             0        2.492154   -0.305479   -0.161842
   10          1             0        3.260181   -0.038844    0.343402
   11          1             0        2.847680   -0.825670   -0.882421
 ---------------------------------------------------------------------
 Rotational constants (GHZ):      5.5197920      1.7081499      1.3706765
 Standard basis: Aug-CC-pVDZ (5D, 7F)
 There are   177 symmetry adapted basis functions of A   symmetry.
 Integral buffers will be    131072 words long.
 Raffenetti 1 integral format.
 Two-electron integral symmetry is turned on.
   177 basis functions,   361 primitive gaussians,   187 cartesian basis functions
    30 alpha electrons       30 beta electrons
       nuclear repulsion energy       315.4413492182 Hartrees.
 NAtoms=   11 NActive=   11 NUniq=   11 SFac= 7.50D-01 NAtFMM=   80 NAOKFM=F Big=F
 One-electron integrals computed using PRISM.
 NBasis=   177 RedAO= T  NBF=   177
 NBsUse=   177 1.00D-06 NBFU=   177
 Harris functional with IExCor=  205 diagonalized for initial guess.
 ExpMin= 2.97D-02 ExpMax= 1.28D+05 ExpMxC= 1.24D+03 IAcc=3 IRadAn=         5 AccDes= 0.00D+00
 HarFok:  IExCor= 205 AccDes= 0.00D+00 IRadAn=         5 IDoV=1
 ScaDFX=  1.000000  1.000000  1.000000  1.000000
 Initial guess orbital symmetries:
       Occupied  (A) (A) (A) (A) (A) (A) (A) (A) (A) (A) (A) (A)
                 (A) (A) (A) (A) (A) (A) (A) (A) (A) (A) (A) (A)
                 (A) (A) (A) (A) (A) (A)
       Virtual   (A) (A) (A) (A) (A) (A) (A) (A) (A) (A) (A) (A)
                 (A) (A) (A) (A) (A) (A) (A) (A) (A) (A) (A) (A)
                 (A) (A) (A) (A) (A) (A) (A) (A) (A) (A) (A) (A)
                 (A) (A) (A) (A) (A) (A) (A) (A) (A) (A) (A) (A)
                 (A) (A) (A) (A) (A) (A) (A) (A) (A) (A) (A) (A)
                 (A) (A) (A) (A) (A) (A) (A) (A) (A) (A) (A) (A)
                 (A) (A) (A) (A) (A) (A) (A) (A) (A) (A) (A) (A)
                 (A) (A) (A) (A) (A) (A) (A) (A) (A) (A) (A) (A)
                 (A) (A) (A) (A) (A) (A) (A) (A) (A) (A) (A) (A)
                 (A) (A) (A) (A) (A) (A) (A) (A) (A) (A) (A) (A)
                 (A) (A) (A) (A) (A) (A) (A) (A) (A) (A) (A) (A)
                 (A) (A) (A) (A) (A) (A) (A) (A) (A) (A) (A) (A)
                 (A) (A) (A)
 The electronic state of the initial guess is 1-A.
 Requested convergence on RMS density matrix=1.00D-08 within 128 cycles.
 Requested convergence on MAX density matrix=1.00D-06.
 Requested convergence on             energy=1.00D-06.
 No special actions if energy rises.
 SCF Done:  E(RHF) =  -1072.83551744     A.U. after   13 cycles
             Convg  =    0.7300D-08             -V/T =  1.9989
             S**2   =   0.0000
 ExpMin= 2.97D-02 ExpMax= 1.28D+05 ExpMxC= 1.24D+03 IAcc=3 IRadAn=         5 AccDes= 0.00D+00
 HarFok:  IExCor= 205 AccDes= 0.00D+00 IRadAn=         5 IDoV=1
 ScaDFX=  1.000000  1.000000  1.000000  1.000000
 Range of M.O.s used for correlation:    14   177
 NBasis=   177 NAE=    30 NBE=    30 NFC=    13 NFV=     0
 NROrb=    164 NOA=    17 NOB=    17 NVA=   147 NVB=   147

 **** Warning!!: The largest alpha MO coefficient is  0.25472541D+02

 Fully direct method using O(OVN) memory.
 JobTyp=1 Pass  1:  I=   1 to  17 NPSUse=  1 ParTrn=F ParDer=F DoDerP=F.
 Spin components of T(2) and E(2):
     alpha-alpha T2 =       0.3982737650D-01 E2=     -0.1100753459D+00
     alpha-beta  T2 =       0.2101020076D+00 E2=     -0.6170860433D+00
     beta-beta   T2 =       0.3982737650D-01 E2=     -0.1100753459D+00
 ANorm=    0.1135674584D+01
 E2 =    -0.8372367351D+00 EUMP2 =    -0.10736727541740D+04

 **********************************************************************

            Population analysis using the SCF density.

 **********************************************************************

 Orbital symmetries:
       Occupied  (A) (A) (A) (A) (A) (A) (A) (A) (A) (A) (A) (A)
                 (A) (A) (A) (A) (A) (A) (A) (A) (A) (A) (A) (A)
                 (A) (A) (A) (A) (A) (A)
       Virtual   (A) (A) (A) (A) (A) (A) (A) (A) (A) (A) (A) (A)
                 (A) (A) (A) (A) (A) (A) (A) (A) (A) (A) (A) (A)
                 (A) (A) (A) (A) (A) (A) (A) (A) (A) (A) (A) (A)
                 (A) (A) (A) (A) (A) (A) (A) (A) (A) (A) (A) (A)
                 (A) (A) (A) (A) (A) (A) (A) (A) (A) (A) (A) (A)
                 (A) (A) (A) (A) (A) (A) (A) (A) (A) (A) (A) (A)
                 (A) (A) (A) (A) (A) (A) (A) (A) (A) (A) (A) (A)
                 (A) (A) (A) (A) (A) (A) (A) (A) (A) (A) (A) (A)
                 (A) (A) (A) (A) (A) (A) (A) (A) (A) (A) (A) (A)
                 (A) (A) (A) (A) (A) (A) (A) (A) (A) (A) (A) (A)
                 (A) (A) (A) (A) (A) (A) (A) (A) (A) (A) (A) (A)
                 (A) (A) (A) (A) (A) (A) (A) (A) (A) (A) (A) (A)
                 (A) (A) (A)
 The electronic state is 1-A.
 Alpha  occ. eigenvalues -- -104.84291-104.78358 -20.68475 -11.24932 -11.21089
 Alpha  occ. eigenvalues --  -10.56484 -10.51010  -8.03575  -8.02588  -8.02553
 Alpha  occ. eigenvalues --   -7.97762  -7.97474  -7.97470  -1.57271  -1.15532
 Alpha  occ. eigenvalues --   -1.08147  -0.96777  -0.87184  -0.86053  -0.72178
 Alpha  occ. eigenvalues --   -0.70605  -0.59307  -0.55171  -0.52234  -0.49587
 Alpha  occ. eigenvalues --   -0.43546  -0.42517  -0.40124  -0.38935  -0.31052
 Alpha virt. eigenvalues --    0.01017   0.03950   0.05161   0.06088   0.07234
 Alpha virt. eigenvalues --    0.07794   0.10848   0.11828   0.13174   0.13737
 Alpha virt. eigenvalues --    0.15376   0.16825   0.17049   0.18524   0.18795
 Alpha virt. eigenvalues --    0.19282   0.19880   0.20020   0.20867   0.21187
 Alpha virt. eigenvalues --    0.22501   0.24458   0.25548   0.27839   0.29008
 Alpha virt. eigenvalues --    0.30136   0.31434   0.32872   0.33977   0.35888
 Alpha virt. eigenvalues --    0.37657   0.37838   0.39038   0.40600   0.41865
 Alpha virt. eigenvalues --    0.42760   0.44282   0.46028   0.46792   0.47769
 Alpha virt. eigenvalues --    0.49426   0.50419   0.50963   0.51760   0.52185
 Alpha virt. eigenvalues --    0.53011   0.55748   0.56714   0.57399   0.59019
 Alpha virt. eigenvalues --    0.59399   0.60299   0.62342   0.63056   0.63810
 Alpha virt. eigenvalues --    0.67019   0.67693   0.68310   0.71034   0.72032
 Alpha virt. eigenvalues --    0.72483   0.73477   0.74540   0.76655   0.77231
 Alpha virt. eigenvalues --    0.81189   0.83092   0.85453   0.87934   0.89729
 Alpha virt. eigenvalues --    0.91192   0.93702   0.96157   0.96990   0.99445
 Alpha virt. eigenvalues --    1.01543   1.04197   1.06319   1.07548   1.11443
 Alpha virt. eigenvalues --    1.13204   1.14071   1.15709   1.18548   1.23172
 Alpha virt. eigenvalues --    1.26766   1.29187   1.32776   1.35703   1.38284
 Alpha virt. eigenvalues --    1.42265   1.46033   1.47682   1.50140   1.50793
 Alpha virt. eigenvalues --    1.52110   1.52396   1.55727   1.56949   1.59777
 Alpha virt. eigenvalues --    1.60666   1.65010   1.66581   1.69664   1.73077
 Alpha virt. eigenvalues --    1.76963   1.78914   1.82686   1.86396   1.91638
 Alpha virt. eigenvalues --    1.93560   2.00006   2.03494   2.04475   2.08894
 Alpha virt. eigenvalues --    2.10659   2.13131   2.15873   2.18241   2.21919
 Alpha virt. eigenvalues --    2.22833   2.28923   2.32909   2.33453   2.39137
 Alpha virt. eigenvalues --    2.44519   2.44619   2.51076   2.51827   2.53690
 Alpha virt. eigenvalues --    2.63607   2.68828   2.71127   2.79099   2.82465
 Alpha virt. eigenvalues --    2.87550   2.93884   3.02274   3.04284   3.07745
 Alpha virt. eigenvalues --    3.12858   3.33892   3.58541   3.68825   3.75154
 Alpha virt. eigenvalues --    4.00716   4.27674
          Condensed to atoms (all electrons):
              1          2          3          4          5          6
     1  C    6.496898  -0.734276   0.126662   0.254322   0.239332   0.063881
     2  Cl  -0.734276  19.503535   0.024127  -0.036386   0.021496  -0.037378
     3  Cl   0.126662   0.024127  17.262209  -0.085205  -0.080677  -0.046579
     4  H    0.254322  -0.036386  -0.085205   0.867575   0.014666  -0.044689
     5  C    0.239332   0.021496  -0.080677   0.014666   4.227634   0.311013
     6  H    0.063881  -0.037378  -0.046579  -0.044689   0.311013   1.061549
     7  H   -0.131351   0.031994   0.029617  -0.018619   0.368338  -0.156873
     8  H   -0.153437   0.027747  -0.016933   0.034649   0.357315  -0.139444
     9  O    0.329303  -2.025227  -0.040548  -0.011769  -0.027471   0.013156
    10  H   -0.029641   0.095027   0.001094   0.001484   0.002958  -0.000852
    11  H   -0.028074   0.092034   0.003616  -0.000849   0.000113  -0.000612
              7          8          9         10         11
     1  C   -0.131351  -0.153437   0.329303  -0.029641  -0.028074
     2  Cl   0.031994   0.027747  -2.025227   0.095027   0.092034
     3  Cl   0.029617  -0.016933  -0.040548   0.001094   0.003616
     4  H   -0.018619   0.034649  -0.011769   0.001484  -0.000849
     5  C    0.368338   0.357315  -0.027471   0.002958   0.000113
     6  H   -0.156873  -0.139444   0.013156  -0.000852  -0.000612
     7  H    1.036608  -0.104853  -0.024295   0.001841   0.000505
     8  H   -0.104853   1.024957  -0.018244   0.001071   0.001208
     9  O   -0.024295  -0.018244   9.576687   0.258321   0.259718
    10  H    0.001841   0.001071   0.258321   0.534127  -0.035291
    11  H    0.000505   0.001208   0.259718  -0.035291   0.534150
 Mulliken atomic charges:
              1
     1  C   -0.433619
     2  Cl   0.037309
     3  Cl  -0.177384
     4  H    0.024820
     5  C    0.565283
     6  H   -0.023172
     7  H   -0.032912
     8  H   -0.014036
     9  O   -0.289631
    10  H    0.169859
    11  H    0.173483
 Sum of Mulliken charges=   0.00000
 Atomic charges with hydrogens summed into heavy atoms:
              1
     1  C   -0.408799
     2  Cl   0.037309
     3  Cl  -0.177384
     4  H    0.000000
     5  C    0.495163
     6  H    0.000000
     7  H    0.000000
     8  H    0.000000
     9  O    0.053712
    10  H    0.000000
    11  H    0.000000
 Sum of Mulliken charges=   0.00000
 Electronic spatial extent (au):  <R**2>=   833.7711
 Charge=     0.0000 electrons
 Dipole moment (field-independent basis, Debye):
    X=     6.9915    Y=     0.6608    Z=    -0.2699  Tot=     7.0278
 Quadrupole moment (field-independent basis, Debye-Ang):
   XX=   -29.4594   YY=   -46.7792   ZZ=   -44.3201
   XY=    -5.3251   XZ=    -2.2370   YZ=     1.8952
 Traceless Quadrupole moment (field-independent basis, Debye-Ang):
   XX=    10.7268   YY=    -6.5930   ZZ=    -4.1339
   XY=    -5.3251   XZ=    -2.2370   YZ=     1.8952
 Octapole moment (field-independent basis, Debye-Ang**2):
  XXX=    94.4623  YYY=    -6.4478  ZZZ=    -1.3995  XYY=     9.0870
  XXY=    -7.8251  XXZ=    -3.8362  XZZ=    10.0851  YZZ=    -2.6013
  YYZ=    -1.6230  XYZ=     3.6967
 Hexadecapole moment (field-independent basis, Debye-Ang**3):
 XXXX=  -488.1885 YYYY=  -289.1408 ZZZZ=   -80.0340 XXXY=   -29.3234
 XXXZ=    -7.4770 YYYX=     2.0019 YYYZ=     6.4969 ZZZX=    -7.5316
 ZZZY=     2.2249 XXYY=  -157.7572 XXZZ=  -118.7446 YYZZ=   -61.7910
 XXYZ=    15.5702 YYXZ=    -3.4112 ZZXY=    -4.9724
 N-N= 3.154413492182D+02 E-N=-3.182755922321D+03  KE= 1.074047857420D+03
 Variable Step   Value    
 -------- ---- -----------
     1       1    3.023562
 ------------------------------------------------------------------------
                         Z-MATRIX (ANGSTROMS AND DEGREES)
 CD Cent Atom  N1     Length/X     N2    Alpha/Y     N3     Beta/Z      J
 ------------------------------------------------------------------------
   1   1  C     0   0.000000          0.338016          0.437380
   2   2  Cl    0   1.473127         -0.559367         -0.071261
   3   3  Cl    0  -1.473129         -0.559363         -0.071261
   4   4  H     0   0.000002          0.326972          1.533563
   5   5  C     0   0.000004          1.737706         -0.146189
   6   6  H     0  -0.898183          2.275207          0.193075
   7   7  H     0   0.898132          2.275242          0.193175
   8   8  H     0   0.000066          1.686646         -1.244096
   9      X     2   1.000000(  8)   1   90.000( 18)   5    0.000( 27)   0
  10   9  O     2   1.600000(  9)   9   90.000( 19)   1  180.000( 28)   0
  11  10  H    10   0.957200( 10)   2  127.740( 20)   9   90.000( 29)   0
  12  11  H    10   0.957200( 11)   2  127.740( 21)   9  -90.000( 30)   0
 ------------------------------------------------------------------------
                         Z-Matrix orientation:                         
 ---------------------------------------------------------------------
 Center     Atomic     Atomic              Coordinates (Angstroms)
 Number     Number      Type              X           Y           Z
 ---------------------------------------------------------------------
    1          6             0        0.000000    0.338016    0.437380
    2         17             0        1.473127   -0.559367   -0.071261
    3         17             0       -1.473129   -0.559363   -0.071261
    4          1             0        0.000002    0.326972    1.533563
    5          6             0        0.000004    1.737706   -0.146189
    6          1             0       -0.898183    2.275207    0.193075
    7          1             0        0.898132    2.275242    0.193175
    8          1             0        0.000066    1.686646   -1.244096
    9         -1             0        1.780915    0.239135   -0.588621
   10          8             0        2.783764   -1.357766   -0.523797
   11          1             0        3.630058   -1.395225   -0.078134
   12          1             0        2.897319   -1.905018   -1.300877
 ---------------------------------------------------------------------
                    Distance matrix (angstroms):
                    1          2          3          4          5
     1  C    0.000000
     2  Cl   1.798365   0.000000
     3  Cl   1.798364   2.946256   0.000000
     4  H    1.096239   2.351841   2.351843   0.000000
     5  C    1.516471   2.729881   2.729883   2.193567   0.000000
     6  H    2.149215   3.705104   2.904346   2.529677   1.100340
     7  H    2.149214   2.904402   3.705103   2.529631   1.100339
     8  H    2.155496   2.930874   2.930939   3.092588   1.099094
     9  X    2.057697   1.000000   3.390290   2.771829   2.369200
    10  O    3.398365   1.600000   4.354696   3.849728   4.180174
    11  H    4.055514   2.313235   5.171192   4.329068   4.795537
    12  H    4.055514   2.313235   4.735352   4.627124   4.795537
                    6          7          8          9         10
     6  H    0.000000
     7  H    1.796315   0.000000
     8  H    1.794078   1.794078   0.000000
     9  X    3.454592   2.352923   2.386705   0.000000
    10  O    5.221986   4.155527   4.187631   1.886796   0.000000
    11  H    5.835288   4.583596   4.902472   2.520130   0.957200
    12  H    5.840549   4.868625   4.614905   2.520130   0.957200
                   11         12
    11  H    0.000000
    12  H    1.513901   0.000000
                           Interatomic angles:
     Cl2-C1-Cl3=109.9993      Cl2-C1-H4=106.1285      Cl3-C1-H4=106.1287
     Cl2-H4-Cl3= 77.5659      Cl2-C1-C5=110.5931      Cl3-C1-C5=110.5933
     Cl2-C5-Cl3= 65.317        H4-C1-C5=113.2098      Cl2-H4-C5= 73.7303
      Cl3-H4-C5= 73.7303      Cl2-C1-H6=139.4601      Cl3-C1-H6= 94.3177
     Cl2-Cl3-H6= 78.5824       H4-C1-H6= 97.0507      Cl2-H4-H6= 98.6881
      Cl3-H4-H6= 72.9177       C1-C5-H6=109.4034      Cl2-C5-H6=147.4653
      Cl3-C5-H6= 87.827        H4-C5-H6= 94.4766      Cl2-C1-H7= 94.3202
      Cl3-C1-H7=139.4602     Cl3-Cl2-H7= 78.5814       H4-C1-H7= 97.0479
      Cl2-H4-H7= 72.9203      Cl3-H4-H7= 98.6893       C1-C5-H7=109.4033
      Cl2-C5-H7= 87.8303      Cl3-C5-H7=147.465        H4-C5-H7= 94.4738
       C1-H7-H6= 65.2979      Cl2-H7-H6=101.4171      Cl3-H6-H7=101.4191
       H4-H7-H6= 69.2048       H6-C5-H7=109.4233      Cl2-C1-H8= 95.2527
      Cl3-C1-H8= 95.2555     Cl2-H8-Cl3= 60.3468       H4-C1-H8=141.8458
      H4-Cl2-H8= 70.6972      H4-Cl3-H8= 70.6959       C1-C5-H8=109.9699
      Cl2-C5-H8= 89.3294      Cl3-C5-H8= 89.3329       H4-C5-H8=137.3122
       C1-H6-H8= 65.5516      Cl2-H8-H6=100.5143      Cl3-H6-H8= 72.9042
       H4-H6-H8= 89.6599       H6-C5-H8=109.3133       C1-H7-H8= 65.5516
      Cl2-H7-H8= 72.9005      Cl3-H8-H7=100.512        H4-H7-H8= 89.6614
       H7-C5-H8=109.3133       H6-H8-H7= 60.0825      C1-Cl2-X9= 90.    
      Cl3-C1-X9=122.9536     Cl3-Cl2-X9=107.9259       H4-C1-X9=119.8747
      H4-Cl2-X9=104.1753      Cl3-H4-X9= 82.4186       C5-C1-X9= 81.5164
      Cl2-X9-C5=100.2005      Cl3-C5-X9= 83.0228       H4-C5-X9= 74.7051
       H6-C1-X9=110.3854       H6-H4-X9= 81.189        H6-C5-X9=168.5649
       H7-C1-X9= 67.9745      Cl2-X9-H7=113.8038       H4-H7-X9= 69.0711
       C5-H7-X9= 77.3509       H6-H7-X9=112.0336       H8-C1-X9= 68.9658
      Cl2-X9-H8=113.3727      Cl3-H8-X9= 78.4857       H4-X9-H8= 73.2403
       H8-C5-X9= 77.5276       H6-H8-X9=110.6429       H8-H7-X9= 68.7597
     C1-Cl2-O10=180.        Cl3-Cl2-O10=144.9997     H4-Cl2-O10=153.3991
     C5-Cl2-O10=148.6669     H7-Cl2-O10=132.4487     H8-Cl2-O10=132.9157
      C1-X9-O10=118.9179     X9-Cl2-O10= 90.          H4-X9-O10=109.9996
      C5-X9-O10=158.1952      H7-X9-O10=156.9839      H8-X9-O10=156.8281
     C1-Cl2-H11=160.8995    Cl3-Cl2-H11=158.817      H4-Cl2-H11=136.2407
     C5-Cl2-H11=143.8169     H7-Cl2-H11=122.5151     H8-Cl2-H11=138.1037
      C1-X9-H11=124.4172     X9-Cl2-H11= 90.          H4-X9-H11=109.6881
      C5-X9-H11=157.5077      H7-X9-H11=140.2809      H8-X9-H11=175.1656
    Cl2-O10-H11=127.74       X9-O10-H11=121.268      C1-Cl2-H12=160.8995
    Cl3-Cl2-H12=128.0008     H4-Cl2-H12=165.3728     C5-Cl2-H12=143.8169
     H7-Cl2-H12=137.5632     H8-Cl2-H12=122.8549      C1-X9-H12=124.4172
     X9-Cl2-H12= 90.          H4-X9-H12=121.8687      C5-X9-H12=157.5077
      H7-X9-H12=175.112       H8-X9-H12=140.2579    Cl2-O10-H12=127.74  
     X9-O10-H12=121.268     Cl2-H12-H11= 70.8995     X9-H12-H11= 72.5207
    H11-O10-H12=104.52  
 Stoichiometry    C2H6Cl2O
 Framework group  C1[X(C2H6Cl2O)]
 Deg. of freedom    27
 Full point group                 C1
 Largest Abelian subgroup         C1      NOp   1
 Largest concise Abelian subgroup C1      NOp   1
                         Standard orientation:                         
 ---------------------------------------------------------------------
 Center     Atomic     Atomic              Coordinates (Angstroms)
 Number     Number      Type              X           Y           Z
 ---------------------------------------------------------------------
    1          6             0       -0.691785    0.407330    0.443318
    2         17             0        1.037142    0.031441    0.121397
    3         17             0       -1.728904   -0.959982   -0.094227
    4          1             0       -0.794678    0.457288    1.533573
    5          6             0       -1.097476    1.691019   -0.254710
    6          1             0       -2.151274    1.912739   -0.028660
    7          1             0       -0.464854    2.517245    0.102900
    8          1             0       -0.973838    1.582606   -1.341434
    9          8             0        2.575364   -0.302986   -0.165016
   10          1             0        3.338952   -0.028887    0.342956
   11          1             0        2.938297   -0.822004   -0.882743
 ---------------------------------------------------------------------
 Rotational constants (GHZ):      5.4892472      1.6577745      1.3371434
 Standard basis: Aug-CC-pVDZ (5D, 7F)
 There are   177 symmetry adapted basis functions of A   symmetry.
 Integral buffers will be    131072 words long.
 Raffenetti 1 integral format.
 Two-electron integral symmetry is turned on.
   177 basis functions,   361 primitive gaussians,   187 cartesian basis functions
    30 alpha electrons       30 beta electrons
       nuclear repulsion energy       311.1514294845 Hartrees.
 NAtoms=   11 NActive=   11 NUniq=   11 SFac= 7.50D-01 NAtFMM=   80 NAOKFM=F Big=F
 One-electron integrals computed using PRISM.
 NBasis=   177 RedAO= T  NBF=   177
 NBsUse=   177 1.00D-06 NBFU=   177
 Initial guess read from the read-write file:
 Initial guess orbital symmetries:
       Occupied  (A) (A) (A) (A) (A) (A) (A) (A) (A) (A) (A) (A)
                 (A) (A) (A) (A) (A) (A) (A) (A) (A) (A) (A) (A)
                 (A) (A) (A) (A) (A) (A)
       Virtual   (A) (A) (A) (A) (A) (A) (A) (A) (A) (A) (A) (A)
                 (A) (A) (A) (A) (A) (A) (A) (A) (A) (A) (A) (A)
                 (A) (A) (A) (A) (A) (A) (A) (A) (A) (A) (A) (A)
                 (A) (A) (A) (A) (A) (A) (A) (A) (A) (A) (A) (A)
                 (A) (A) (A) (A) (A) (A) (A) (A) (A) (A) (A) (A)
                 (A) (A) (A) (A) (A) (A) (A) (A) (A) (A) (A) (A)
                 (A) (A) (A) (A) (A) (A) (A) (A) (A) (A) (A) (A)
                 (A) (A) (A) (A) (A) (A) (A) (A) (A) (A) (A) (A)
                 (A) (A) (A) (A) (A) (A) (A) (A) (A) (A) (A) (A)
                 (A) (A) (A) (A) (A) (A) (A) (A) (A) (A) (A) (A)
                 (A) (A) (A) (A) (A) (A) (A) (A) (A) (A) (A) (A)
                 (A) (A) (A) (A) (A) (A) (A) (A) (A) (A) (A) (A)
                 (A) (A) (A)
 Harris functional with IExCor=  205 diagonalized for initial guess.
 ExpMin= 2.97D-02 ExpMax= 1.28D+05 ExpMxC= 1.24D+03 IAcc=3 IRadAn=         5 AccDes= 0.00D+00
 HarFok:  IExCor= 205 AccDes= 0.00D+00 IRadAn=         5 IDoV=1
 ScaDFX=  1.000000  1.000000  1.000000  1.000000
 Requested convergence on RMS density matrix=1.00D-08 within 128 cycles.
 Requested convergence on MAX density matrix=1.00D-06.
 Requested convergence on             energy=1.00D-06.
 No special actions if energy rises.
 SCF Done:  E(RHF) =  -1072.90702270     A.U. after   12 cycles
             Convg  =    0.8003D-08             -V/T =  1.9991
             S**2   =   0.0000
 ExpMin= 2.97D-02 ExpMax= 1.28D+05 ExpMxC= 1.24D+03 IAcc=3 IRadAn=         5 AccDes= 0.00D+00
 HarFok:  IExCor= 205 AccDes= 0.00D+00 IRadAn=         5 IDoV=1
 ScaDFX=  1.000000  1.000000  1.000000  1.000000
 Range of M.O.s used for correlation:    14   177
 NBasis=   177 NAE=    30 NBE=    30 NFC=    13 NFV=     0
 NROrb=    164 NOA=    17 NOB=    17 NVA=   147 NVB=   147

 **** Warning!!: The largest alpha MO coefficient is  0.27414414D+02

 Fully direct method using O(OVN) memory.
 JobTyp=1 Pass  1:  I=   1 to  17 NPSUse=  1 ParTrn=F ParDer=F DoDerP=F.
 Spin components of T(2) and E(2):
     alpha-alpha T2 =       0.3969049931D-01 E2=     -0.1094810995D+00
     alpha-beta  T2 =       0.2107242282D+00 E2=     -0.6176821714D+00
     beta-beta   T2 =       0.3969049931D-01 E2=     -0.1094810995D+00
 ANorm=    0.1135827992D+01
 E2 =    -0.8366443704D+00 EUMP2 =    -0.10737436670664D+04
 Variable Step   Value    
 -------- ---- -----------
     1       2    3.212534
 ------------------------------------------------------------------------
                         Z-MATRIX (ANGSTROMS AND DEGREES)
 CD Cent Atom  N1     Length/X     N2    Alpha/Y     N3     Beta/Z      J
 ------------------------------------------------------------------------
   1   1  C     0   0.000000          0.338016          0.437380
   2   2  Cl    0   1.473127         -0.559367         -0.071261
   3   3  Cl    0  -1.473129         -0.559363         -0.071261
   4   4  H     0   0.000002          0.326972          1.533563
   5   5  C     0   0.000004          1.737706         -0.146189
   6   6  H     0  -0.898183          2.275207          0.193075
   7   7  H     0   0.898132          2.275242          0.193175
   8   8  H     0   0.000066          1.686646         -1.244096
   9      X     2   1.000000(  8)   1   90.000( 18)   5    0.000( 27)   0
  10   9  O     2   1.700000(  9)   9   90.000( 19)   1  180.000( 28)   0
  11  10  H    10   0.957200( 10)   2  127.740( 20)   9   90.000( 29)   0
  12  11  H    10   0.957200( 11)   2  127.740( 21)   9  -90.000( 30)   0
 ------------------------------------------------------------------------
                         Z-Matrix orientation:                         
 ---------------------------------------------------------------------
 Center     Atomic     Atomic              Coordinates (Angstroms)
 Number     Number      Type              X           Y           Z
 ---------------------------------------------------------------------
    1          6             0        0.000000    0.338016    0.437380
    2         17             0        1.473127   -0.559367   -0.071261
    3         17             0       -1.473129   -0.559363   -0.071261
    4          1             0        0.000002    0.326972    1.533563
    5          6             0        0.000004    1.737706   -0.146189
    6          1             0       -0.898183    2.275207    0.193075
    7          1             0        0.898132    2.275242    0.193175
    8          1             0        0.000066    1.686646   -1.244096
    9         -1             0        1.780915    0.239135   -0.588621
   10          8             0        2.865679   -1.407666   -0.552081
   11          1             0        3.711972   -1.445125   -0.106418
   12          1             0        2.979234   -1.954918   -1.329161
 ---------------------------------------------------------------------
                    Distance matrix (angstroms):
                    1          2          3          4          5
     1  C    0.000000
     2  Cl   1.798365   0.000000
     3  Cl   1.798364   2.946256   0.000000
     4  H    1.096239   2.351841   2.351843   0.000000
     5  C    1.516471   2.729881   2.729883   2.193567   0.000000
     6  H    2.149215   3.705104   2.904346   2.529677   1.100340
     7  H    2.149214   2.904402   3.705103   2.529631   1.100339
     8  H    2.155496   2.930874   2.930939   3.092588   1.099094
     9  X    2.057697   1.000000   3.390290   2.771829   2.369200
    10  O    3.498365   1.700000   4.447028   3.946009   4.274366
    11  H    4.153799   2.407952   5.260331   4.428159   4.889857
    12  H    4.153799   2.407952   4.832538   4.719961   4.889857
                    6          7          8          9         10
     6  H    0.000000
     7  H    1.796315   0.000000
     8  H    1.794078   1.794078   0.000000
     9  X    3.454592   2.352923   2.386705   0.000000
    10  O    5.318408   4.241516   4.273803   1.972308   0.000000
    11  H    5.931618   4.674247   4.988041   2.607342   0.957200
    12  H    5.936794   4.954063   4.705705   2.607342   0.957200
                   11         12
    11  H    0.000000
    12  H    1.513901   0.000000
                           Interatomic angles:
     Cl2-C1-Cl3=109.9993      Cl2-C1-H4=106.1285      Cl3-C1-H4=106.1287
     Cl2-H4-Cl3= 77.5659      Cl2-C1-C5=110.5931      Cl3-C1-C5=110.5933
     Cl2-C5-Cl3= 65.317        H4-C1-C5=113.2098      Cl2-H4-C5= 73.7303
      Cl3-H4-C5= 73.7303      Cl2-C1-H6=139.4601      Cl3-C1-H6= 94.3177
     Cl2-Cl3-H6= 78.5824       H4-C1-H6= 97.0507      Cl2-H4-H6= 98.6881
      Cl3-H4-H6= 72.9177       C1-C5-H6=109.4034      Cl2-C5-H6=147.4653
      Cl3-C5-H6= 87.827        H4-C5-H6= 94.4766      Cl2-C1-H7= 94.3202
      Cl3-C1-H7=139.4602     Cl3-Cl2-H7= 78.5814       H4-C1-H7= 97.0479
      Cl2-H4-H7= 72.9203      Cl3-H4-H7= 98.6893       C1-C5-H7=109.4033
      Cl2-C5-H7= 87.8303      Cl3-C5-H7=147.465        H4-C5-H7= 94.4738
       C1-H7-H6= 65.2979      Cl2-H7-H6=101.4171      Cl3-H6-H7=101.4191
       H4-H7-H6= 69.2048       H6-C5-H7=109.4233      Cl2-C1-H8= 95.2527
      Cl3-C1-H8= 95.2555     Cl2-H8-Cl3= 60.3468       H4-C1-H8=141.8458
      H4-Cl2-H8= 70.6972      H4-Cl3-H8= 70.6959       C1-C5-H8=109.9699
      Cl2-C5-H8= 89.3294      Cl3-C5-H8= 89.3329       H4-C5-H8=137.3122
       C1-H6-H8= 65.5516      Cl2-H8-H6=100.5143      Cl3-H6-H8= 72.9042
       H4-H6-H8= 89.6599       H6-C5-H8=109.3133       C1-H7-H8= 65.5516
      Cl2-H7-H8= 72.9005      Cl3-H8-H7=100.512        H4-H7-H8= 89.6614
       H7-C5-H8=109.3133       H6-H8-H7= 60.0825      C1-Cl2-X9= 90.    
      Cl3-C1-X9=122.9536     Cl3-Cl2-X9=107.9259       H4-C1-X9=119.8747
      H4-Cl2-X9=104.1753      Cl3-H4-X9= 82.4186       C5-C1-X9= 81.5164
      Cl2-X9-C5=100.2005      Cl3-C5-X9= 83.0228       H4-C5-X9= 74.7051
       H6-C1-X9=110.3854       H6-H4-X9= 81.189        H6-C5-X9=168.5649
       H7-C1-X9= 67.9745      Cl2-X9-H7=113.8038       H4-H7-X9= 69.0711
       C5-H7-X9= 77.3509       H6-H7-X9=112.0336       H8-C1-X9= 68.9658
      Cl2-X9-H8=113.3727      Cl3-H8-X9= 78.4857       H4-X9-H8= 73.2403
       H8-C5-X9= 77.5276       H6-H8-X9=110.6429       H8-H7-X9= 68.7597
     C1-Cl2-O10=180.        Cl3-Cl2-O10=144.9997     H4-Cl2-O10=153.3991
     C5-Cl2-O10=148.6669     H7-Cl2-O10=132.4487     H8-Cl2-O10=132.9157
      C1-X9-O10=120.4577     X9-Cl2-O10= 90.          H4-X9-O10=111.4476
      C5-X9-O10=159.735       H7-X9-O10=157.3287      H8-X9-O10=157.2004
     C1-Cl2-H11=161.6782    Cl3-Cl2-H11=158.3993     H4-Cl2-H11=136.9682
     C5-Cl2-H11=144.1798     H7-Cl2-H11=122.9842     H8-Cl2-H11=138.0179
      C1-X9-H11=125.4385     X9-Cl2-H11= 90.          H4-X9-H11=110.7768
      C5-X9-H11=158.5558      H7-X9-H11=140.8424      H8-X9-H11=174.3739
    Cl2-O10-H11=127.74       X9-O10-H11=121.8416     C1-Cl2-H12=161.6782
    Cl3-Cl2-H12=128.7169     H4-Cl2-H12=165.1639     C5-Cl2-H12=144.1798
     H7-Cl2-H12=137.4783     H8-Cl2-H12=123.3294      C1-X9-H12=125.4385
     X9-Cl2-H12= 90.          H4-X9-H12=122.6436      C5-X9-H12=158.5558
      H7-X9-H12=174.2618      H8-X9-H12=140.8305    Cl2-O10-H12=127.74  
     X9-O10-H12=121.8416    Cl2-H11-H12= 71.6782     X9-H11-H12= 73.1232
    H11-O10-H12=104.52  
 Stoichiometry    C2H6Cl2O
 Framework group  C1[X(C2H6Cl2O)]
 Deg. of freedom    27
 Full point group                 C1
 Largest Abelian subgroup         C1      NOp   1
 Largest concise Abelian subgroup C1      NOp   1
                         Standard orientation:                         
 ---------------------------------------------------------------------
 Center     Atomic     Atomic              Coordinates (Angstroms)
 Number     Number      Type              X           Y           Z
 ---------------------------------------------------------------------
    1          6             0       -0.712882    0.406366    0.442279
    2         17             0        1.020272    0.043119    0.128685
    3         17             0       -1.737071   -0.970187   -0.096472
    4          1             0       -0.820864    0.458076    1.531961
    5          6             0       -1.125469    1.685239   -0.260531
    6          1             0       -2.181914    1.899324   -0.039539
    7          1             0       -0.500801    2.517172    0.097834
    8          1             0       -0.996307    1.575244   -1.346452
    9          8             0        2.658629   -0.300260   -0.167758
   10          1             0        3.417875   -0.019071    0.342840
   11          1             0        3.028658   -0.818131   -0.882684
 ---------------------------------------------------------------------
 Rotational constants (GHZ):      5.4598656      1.6086601      1.3041829
 Standard basis: Aug-CC-pVDZ (5D, 7F)
 There are   177 symmetry adapted basis functions of A   symmetry.
 Integral buffers will be    131072 words long.
 Raffenetti 1 integral format.
 Two-electron integral symmetry is turned on.
   177 basis functions,   361 primitive gaussians,   187 cartesian basis functions
    30 alpha electrons       30 beta electrons
       nuclear repulsion energy       307.2799638653 Hartrees.
 NAtoms=   11 NActive=   11 NUniq=   11 SFac= 7.50D-01 NAtFMM=   80 NAOKFM=F Big=F
 One-electron integrals computed using PRISM.
 NBasis=   177 RedAO= T  NBF=   177
 NBsUse=   177 1.00D-06 NBFU=   177
 Initial guess read from the read-write file:
 Initial guess orbital symmetries:
       Occupied  (A) (A) (A) (A) (A) (A) (A) (A) (A) (A) (A) (A)
                 (A) (A) (A) (A) (A) (A) (A) (A) (A) (A) (A) (A)
                 (A) (A) (A) (A) (A) (A)
       Virtual   (A) (A) (A) (A) (A) (A) (A) (A) (A) (A) (A) (A)
                 (A) (A) (A) (A) (A) (A) (A) (A) (A) (A) (A) (A)
                 (A) (A) (A) (A) (A) (A) (A) (A) (A) (A) (A) (A)
                 (A) (A) (A) (A) (A) (A) (A) (A) (A) (A) (A) (A)
                 (A) (A) (A) (A) (A) (A) (A) (A) (A) (A) (A) (A)
                 (A) (A) (A) (A) (A) (A) (A) (A) (A) (A) (A) (A)
                 (A) (A) (A) (A) (A) (A) (A) (A) (A) (A) (A) (A)
                 (A) (A) (A) (A) (A) (A) (A) (A) (A) (A) (A) (A)
                 (A) (A) (A) (A) (A) (A) (A) (A) (A) (A) (A) (A)
                 (A) (A) (A) (A) (A) (A) (A) (A) (A) (A) (A) (A)
                 (A) (A) (A) (A) (A) (A) (A) (A) (A) (A) (A) (A)
                 (A) (A) (A) (A) (A) (A) (A) (A) (A) (A) (A) (A)
                 (A) (A) (A)
 Harris functional with IExCor=  205 diagonalized for initial guess.
 ExpMin= 2.97D-02 ExpMax= 1.28D+05 ExpMxC= 1.24D+03 IAcc=3 IRadAn=         5 AccDes= 0.00D+00
 HarFok:  IExCor= 205 AccDes= 0.00D+00 IRadAn=         5 IDoV=1
 ScaDFX=  1.000000  1.000000  1.000000  1.000000
 Requested convergence on RMS density matrix=1.00D-08 within 128 cycles.
 Requested convergence on MAX density matrix=1.00D-06.
 Requested convergence on             energy=1.00D-06.
 No special actions if energy rises.
 SCF Done:  E(RHF) =  -1072.96240011     A.U. after   12 cycles
             Convg  =    0.5359D-08             -V/T =  1.9994
             S**2   =   0.0000
 ExpMin= 2.97D-02 ExpMax= 1.28D+05 ExpMxC= 1.24D+03 IAcc=3 IRadAn=         5 AccDes= 0.00D+00
 HarFok:  IExCor= 205 AccDes= 0.00D+00 IRadAn=         5 IDoV=1
 ScaDFX=  1.000000  1.000000  1.000000  1.000000
 Range of M.O.s used for correlation:    14   177
 NBasis=   177 NAE=    30 NBE=    30 NFC=    13 NFV=     0
 NROrb=    164 NOA=    17 NOB=    17 NVA=   147 NVB=   147

 **** Warning!!: The largest alpha MO coefficient is  0.28670207D+02

 Fully direct method using O(OVN) memory.
 JobTyp=1 Pass  1:  I=   1 to  17 NPSUse=  1 ParTrn=F ParDer=F DoDerP=F.
 Spin components of T(2) and E(2):
     alpha-alpha T2 =       0.3952854252D-01 E2=     -0.1088249182D+00
     alpha-beta  T2 =       0.2111083289D+00 E2=     -0.6176075315D+00
     beta-beta   T2 =       0.3952854252D-01 E2=     -0.1088249182D+00
 ANorm=    0.1135854486D+01
 E2 =    -0.8352573680D+00 EUMP2 =    -0.10737976574788D+04
 Variable Step   Value    
 -------- ---- -----------
     1       3    3.401507
 ------------------------------------------------------------------------
                         Z-MATRIX (ANGSTROMS AND DEGREES)
 CD Cent Atom  N1     Length/X     N2    Alpha/Y     N3     Beta/Z      J
 ------------------------------------------------------------------------
   1   1  C     0   0.000000          0.338016          0.437380
   2   2  Cl    0   1.473127         -0.559367         -0.071261
   3   3  Cl    0  -1.473129         -0.559363         -0.071261
   4   4  H     0   0.000002          0.326972          1.533563
   5   5  C     0   0.000004          1.737706         -0.146189
   6   6  H     0  -0.898183          2.275207          0.193075
   7   7  H     0   0.898132          2.275242          0.193175
   8   8  H     0   0.000066          1.686646         -1.244096
   9      X     2   1.000000(  8)   1   90.000( 18)   5    0.000( 27)   0
  10   9  O     2   1.800000(  9)   9   90.000( 19)   1  180.000( 28)   0
  11  10  H    10   0.957200( 10)   2  127.740( 20)   9   90.000( 29)   0
  12  11  H    10   0.957200( 11)   2  127.740( 21)   9  -90.000( 30)   0
 ------------------------------------------------------------------------
                         Z-Matrix orientation:                         
 ---------------------------------------------------------------------
 Center     Atomic     Atomic              Coordinates (Angstroms)
 Number     Number      Type              X           Y           Z
 ---------------------------------------------------------------------
    1          6             0        0.000000    0.338016    0.437380
    2         17             0        1.473127   -0.559367   -0.071261
    3         17             0       -1.473129   -0.559363   -0.071261
    4          1             0        0.000002    0.326972    1.533563
    5          6             0        0.000004    1.737706   -0.146189
    6          1             0       -0.898183    2.275207    0.193075
    7          1             0        0.898132    2.275242    0.193175
    8          1             0        0.000066    1.686646   -1.244096
    9         -1             0        1.780915    0.239135   -0.588621
   10          8             0        2.947594   -1.457566   -0.580365
   11          1             0        3.793887   -1.495025   -0.134701
   12          1             0        3.061149   -2.004818   -1.357444
 ---------------------------------------------------------------------
                    Distance matrix (angstroms):
                    1          2          3          4          5
     1  C    0.000000
     2  Cl   1.798365   0.000000
     3  Cl   1.798364   2.946256   0.000000
     4  H    1.096239   2.351841   2.351843   0.000000
     5  C    1.516471   2.729881   2.729883   2.193567   0.000000
     6  H    2.149215   3.705104   2.904346   2.529677   1.100340
     7  H    2.149214   2.904402   3.705103   2.529631   1.100339
     8  H    2.155496   2.930874   2.930939   3.092588   1.099094
     9  X    2.057697   1.000000   3.390290   2.771829   2.369200
    10  O    3.598365   1.800000   4.539685   4.042470   4.368816
    11  H    4.252164   2.503080   5.349855   4.527289   4.984399
    12  H    4.252164   2.503080   4.929836   4.813085   4.984399
                    6          7          8          9         10
     6  H    0.000000
     7  H    1.796315   0.000000
     8  H    1.794078   1.794078   0.000000
     9  X    3.454592   2.352923   2.386705   0.000000
    10  O    5.414961   4.328107   4.360565   2.059126   0.000000
    11  H    6.028068   4.765271   5.074137   2.695442   0.957200
    12  H    6.033161   5.040037   4.796872   2.695442   0.957200
                   11         12
    11  H    0.000000
    12  H    1.513901   0.000000
                           Interatomic angles:
     Cl2-C1-Cl3=109.9993      Cl2-C1-H4=106.1285      Cl3-C1-H4=106.1287
     Cl2-H4-Cl3= 77.5659      Cl2-C1-C5=110.5931      Cl3-C1-C5=110.5933
     Cl2-C5-Cl3= 65.317        H4-C1-C5=113.2098      Cl2-H4-C5= 73.7303
      Cl3-H4-C5= 73.7303      Cl2-C1-H6=139.4601      Cl3-C1-H6= 94.3177
     Cl2-Cl3-H6= 78.5824       H4-C1-H6= 97.0507      Cl2-H4-H6= 98.6881
      Cl3-H4-H6= 72.9177       C1-C5-H6=109.4034      Cl2-C5-H6=147.4653
      Cl3-C5-H6= 87.827        H4-C5-H6= 94.4766      Cl2-C1-H7= 94.3202
      Cl3-C1-H7=139.4602     Cl3-Cl2-H7= 78.5814       H4-C1-H7= 97.0479
      Cl2-H4-H7= 72.9203      Cl3-H4-H7= 98.6893       C1-C5-H7=109.4033
      Cl2-C5-H7= 87.8303      Cl3-C5-H7=147.465        H4-C5-H7= 94.4738
       C1-H7-H6= 65.2979      Cl2-H7-H6=101.4171      Cl3-H6-H7=101.4191
       H4-H7-H6= 69.2048       H6-C5-H7=109.4233      Cl2-C1-H8= 95.2527
      Cl3-C1-H8= 95.2555     Cl2-H8-Cl3= 60.3468       H4-C1-H8=141.8458
      H4-Cl2-H8= 70.6972      H4-Cl3-H8= 70.6959       C1-C5-H8=109.9699
      Cl2-C5-H8= 89.3294      Cl3-C5-H8= 89.3329       H4-C5-H8=137.3122
       C1-H6-H8= 65.5516      Cl2-H8-H6=100.5143      Cl3-H6-H8= 72.9042
       H4-H6-H8= 89.6599       H6-C5-H8=109.3133       C1-H7-H8= 65.5516
      Cl2-H7-H8= 72.9005      Cl3-H8-H7=100.512        H4-H7-H8= 89.6614
       H7-C5-H8=109.3133       H6-H8-H7= 60.0825      C1-Cl2-X9= 90.    
      Cl3-C1-X9=122.9536     Cl3-Cl2-X9=107.9259       H4-C1-X9=119.8747
      H4-Cl2-X9=104.1753      Cl3-H4-X9= 82.4186       C5-C1-X9= 81.5164
      Cl2-X9-C5=100.2005      Cl3-C5-X9= 83.0228       H4-C5-X9= 74.7051
       H6-C1-X9=110.3854       H6-H4-X9= 81.189        H6-C5-X9=168.5649
       H7-C1-X9= 67.9745      Cl2-X9-H7=113.8038       H4-H7-X9= 69.0711
       C5-H7-X9= 77.3509       H6-H7-X9=112.0336       H8-C1-X9= 68.9658
      Cl2-X9-H8=113.3727      Cl3-H8-X9= 78.4857       H4-X9-H8= 73.2403
       H8-C5-X9= 77.5276       H6-H8-X9=110.6429       H8-H7-X9= 68.7597
     C1-Cl2-O10=180.        Cl3-Cl2-O10=144.9997     H4-Cl2-O10=153.3991
     C5-Cl2-O10=148.6669     H7-Cl2-O10=132.4487     H8-Cl2-O10=132.9157
      C1-X9-O10=121.8687     X9-Cl2-O10= 90.          H4-X9-O10=112.7728
      C5-X9-O10=161.1459      H7-X9-O10=157.561       H8-X9-O10=157.459 
     C1-Cl2-H11=162.3977    Cl3-Cl2-H11=157.9967     H4-Cl2-H11=137.6393
     C5-Cl2-H11=144.505      H7-Cl2-H11=123.4138     H8-Cl2-H11=137.9282
      C1-X9-H11=126.3916     X9-Cl2-H11= 90.          H4-X9-H11=111.7946
      C5-X9-H11=159.5315      H7-X9-H11=141.35        H8-X9-H11=173.5535
    Cl2-O10-H11=127.74       X9-O10-H11=122.3475     C1-Cl2-H12=162.3977
    Cl3-Cl2-H12=129.3776     H4-Cl2-H12=164.9383     C5-Cl2-H12=144.505 
     H7-Cl2-H12=137.3897     H8-Cl2-H12=123.764       C1-X9-H12=126.3916
     X9-Cl2-H12= 90.          H4-X9-H12=123.362       C5-X9-H12=159.5315
      H7-X9-H12=173.4018      H8-X9-H12=141.3488    Cl2-O10-H12=127.74  
     X9-O10-H12=122.3475    Cl2-H12-H11= 72.3977     X9-H11-H12= 73.6905
    H11-O10-H12=104.52  
 Stoichiometry    C2H6Cl2O
 Framework group  C1[X(C2H6Cl2O)]
 Deg. of freedom    27
 Full point group                 C1
 Largest Abelian subgroup         C1      NOp   1
 Largest concise Abelian subgroup C1      NOp   1
                         Standard orientation:                         
 ---------------------------------------------------------------------
 Center     Atomic     Atomic              Coordinates (Angstroms)
 Number     Number      Type              X           Y           Z
 ---------------------------------------------------------------------
    1          6             0       -0.733799    0.405365    0.441191
    2         17             0        1.003280    0.054171    0.135683
    3         17             0       -1.745573   -0.979904   -0.098680
    4          1             0       -0.846733    0.458745    1.530290
    5          6             0       -1.152817    1.679573   -0.266271
    6          1             0       -2.211726    1.886379   -0.050191
    7          1             0       -0.535790    2.516889    0.092794
    8          1             0       -1.018290    1.568074   -1.351387
    9          8             0        2.741938   -0.297342   -0.170103
   10          1             0        3.496947   -0.009420    0.343019
   11          1             0        3.118762   -0.814094   -0.882285
 ---------------------------------------------------------------------
 Rotational constants (GHZ):      5.4316298      1.5608423      1.2718287
 Standard basis: Aug-CC-pVDZ (5D, 7F)
 There are   177 symmetry adapted basis functions of A   symmetry.
 Integral buffers will be    131072 words long.
 Raffenetti 1 integral format.
 Two-electron integral symmetry is turned on.
   177 basis functions,   361 primitive gaussians,   187 cartesian basis functions
    30 alpha electrons       30 beta electrons
       nuclear repulsion energy       303.7631543269 Hartrees.
 NAtoms=   11 NActive=   11 NUniq=   11 SFac= 7.50D-01 NAtFMM=   80 NAOKFM=F Big=F
 One-electron integrals computed using PRISM.
 NBasis=   177 RedAO= T  NBF=   177
 NBsUse=   177 1.00D-06 NBFU=   177
 Initial guess read from the read-write file:
 Initial guess orbital symmetries:
       Occupied  (A) (A) (A) (A) (A) (A) (A) (A) (A) (A) (A) (A)
                 (A) (A) (A) (A) (A) (A) (A) (A) (A) (A) (A) (A)
                 (A) (A) (A) (A) (A) (A)
       Virtual   (A) (A) (A) (A) (A) (A) (A) (A) (A) (A) (A) (A)
                 (A) (A) (A) (A) (A) (A) (A) (A) (A) (A) (A) (A)
                 (A) (A) (A) (A) (A) (A) (A) (A) (A) (A) (A) (A)
                 (A) (A) (A) (A) (A) (A) (A) (A) (A) (A) (A) (A)
                 (A) (A) (A) (A) (A) (A) (A) (A) (A) (A) (A) (A)
                 (A) (A) (A) (A) (A) (A) (A) (A) (A) (A) (A) (A)
                 (A) (A) (A) (A) (A) (A) (A) (A) (A) (A) (A) (A)
                 (A) (A) (A) (A) (A) (A) (A) (A) (A) (A) (A) (A)
                 (A) (A) (A) (A) (A) (A) (A) (A) (A) (A) (A) (A)
                 (A) (A) (A) (A) (A) (A) (A) (A) (A) (A) (A) (A)
                 (A) (A) (A) (A) (A) (A) (A) (A) (A) (A) (A) (A)
                 (A) (A) (A) (A) (A) (A) (A) (A) (A) (A) (A) (A)
                 (A) (A) (A)
 Harris functional with IExCor=  205 diagonalized for initial guess.
 ExpMin= 2.97D-02 ExpMax= 1.28D+05 ExpMxC= 1.24D+03 IAcc=3 IRadAn=         5 AccDes= 0.00D+00
 HarFok:  IExCor= 205 AccDes= 0.00D+00 IRadAn=         5 IDoV=1
 ScaDFX=  1.000000  1.000000  1.000000  1.000000
 Requested convergence on RMS density matrix=1.00D-08 within 128 cycles.
 Requested convergence on MAX density matrix=1.00D-06.
 Requested convergence on             energy=1.00D-06.
 No special actions if energy rises.
 SCF Done:  E(RHF) =  -1073.00522731     A.U. after   11 cycles
             Convg  =    0.9782D-08             -V/T =  1.9995
             S**2   =   0.0000
 ExpMin= 2.97D-02 ExpMax= 1.28D+05 ExpMxC= 1.24D+03 IAcc=3 IRadAn=         5 AccDes= 0.00D+00
 HarFok:  IExCor= 205 AccDes= 0.00D+00 IRadAn=         5 IDoV=1
 ScaDFX=  1.000000  1.000000  1.000000  1.000000
 Range of M.O.s used for correlation:    14   177
 NBasis=   177 NAE=    30 NBE=    30 NFC=    13 NFV=     0
 NROrb=    164 NOA=    17 NOB=    17 NVA=   147 NVB=   147

 **** Warning!!: The largest alpha MO coefficient is  0.26543786D+02

 Fully direct method using O(OVN) memory.
 JobTyp=1 Pass  1:  I=   1 to  17 NPSUse=  1 ParTrn=F ParDer=F DoDerP=F.
 Spin components of T(2) and E(2):
     alpha-alpha T2 =       0.3933376267D-01 E2=     -0.1081322995D+00
     alpha-beta  T2 =       0.2111824869D+00 E2=     -0.6169749243D+00
     beta-beta   T2 =       0.3933376267D-01 E2=     -0.1081322995D+00
 ANorm=    0.1135715639D+01
 E2 =    -0.8332395232D+00 EUMP2 =    -0.10738384668336D+04
 Variable Step   Value    
 -------- ---- -----------
     1       4    3.590480
 ------------------------------------------------------------------------
                         Z-MATRIX (ANGSTROMS AND DEGREES)
 CD Cent Atom  N1     Length/X     N2    Alpha/Y     N3     Beta/Z      J
 ------------------------------------------------------------------------
   1   1  C     0   0.000000          0.338016          0.437380
   2   2  Cl    0   1.473127         -0.559367         -0.071261
   3   3  Cl    0  -1.473129         -0.559363         -0.071261
   4   4  H     0   0.000002          0.326972          1.533563
   5   5  C     0   0.000004          1.737706         -0.146189
   6   6  H     0  -0.898183          2.275207          0.193075
   7   7  H     0   0.898132          2.275242          0.193175
   8   8  H     0   0.000066          1.686646         -1.244096
   9      X     2   1.000000(  8)   1   90.000( 18)   5    0.000( 27)   0
  10   9  O     2   1.900000(  9)   9   90.000( 19)   1  180.000( 28)   0
  11  10  H    10   0.957200( 10)   2  127.740( 20)   9   90.000( 29)   0
  12  11  H    10   0.957200( 11)   2  127.740( 21)   9  -90.000( 30)   0
 ------------------------------------------------------------------------
                         Z-Matrix orientation:                         
 ---------------------------------------------------------------------
 Center     Atomic     Atomic              Coordinates (Angstroms)
 Number     Number      Type              X           Y           Z
 ---------------------------------------------------------------------
    1          6             0        0.000000    0.338016    0.437380
    2         17             0        1.473127   -0.559367   -0.071261
    3         17             0       -1.473129   -0.559363   -0.071261
    4          1             0        0.000002    0.326972    1.533563
    5          6             0        0.000004    1.737706   -0.146189
    6          1             0       -0.898183    2.275207    0.193075
    7          1             0        0.898132    2.275242    0.193175
    8          1             0        0.000066    1.686646   -1.244096
    9         -1             0        1.780915    0.239135   -0.588621
   10          8             0        3.029508   -1.507466   -0.608648
   11          1             0        3.875802   -1.544925   -0.162985
   12          1             0        3.143064   -2.054717   -1.385728
 ---------------------------------------------------------------------
                    Distance matrix (angstroms):
                    1          2          3          4          5
     1  C    0.000000
     2  Cl   1.798365   0.000000
     3  Cl   1.798364   2.946256   0.000000
     4  H    1.096239   2.351841   2.351843   0.000000
     5  C    1.516471   2.729881   2.729883   2.193567   0.000000
     6  H    2.149215   3.705104   2.904346   2.529677   1.100340
     7  H    2.149214   2.904402   3.705103   2.529631   1.100339
     8  H    2.155496   2.930874   2.930939   3.092588   1.099094
     9  X    2.057697   1.000000   3.390290   2.771829   2.369200
    10  O    3.698365   1.900000   4.632648   4.139099   4.463508
    11  H    4.350603   2.598574   5.439743   4.626456   5.079149
    12  H    4.350603   2.598574   5.027240   4.906479   5.079149
                    6          7          8          9         10
     6  H    0.000000
     7  H    1.796315   0.000000
     8  H    1.794078   1.794078   0.000000
     9  X    3.454592   2.352923   2.386705   0.000000
    10  O    5.511636   4.415265   4.447883   2.147091   0.000000
    11  H    6.124632   4.856649   5.160734   2.784346   0.957200
    12  H    6.129644   5.126519   4.888384   2.784346   0.957200
                   11         12
    11  H    0.000000
    12  H    1.513901   0.000000
                           Interatomic angles:
     Cl2-C1-Cl3=109.9993      Cl2-C1-H4=106.1285      Cl3-C1-H4=106.1287
     Cl2-H4-Cl3= 77.5659      Cl2-C1-C5=110.5931      Cl3-C1-C5=110.5933
     Cl2-C5-Cl3= 65.317        H4-C1-C5=113.2098      Cl2-H4-C5= 73.7303
      Cl3-H4-C5= 73.7303      Cl2-C1-H6=139.4601      Cl3-C1-H6= 94.3177
     Cl2-Cl3-H6= 78.5824       H4-C1-H6= 97.0507      Cl2-H4-H6= 98.6881
      Cl3-H4-H6= 72.9177       C1-C5-H6=109.4034      Cl2-C5-H6=147.4653
      Cl3-C5-H6= 87.827        H4-C5-H6= 94.4766      Cl2-C1-H7= 94.3202
      Cl3-C1-H7=139.4602     Cl3-Cl2-H7= 78.5814       H4-C1-H7= 97.0479
      Cl2-H4-H7= 72.9203      Cl3-H4-H7= 98.6893       C1-C5-H7=109.4033
      Cl2-C5-H7= 87.8303      Cl3-C5-H7=147.465        H4-C5-H7= 94.4738
       C1-H7-H6= 65.2979      Cl2-H7-H6=101.4171      Cl3-H6-H7=101.4191
       H4-H7-H6= 69.2048       H6-C5-H7=109.4233      Cl2-C1-H8= 95.2527
      Cl3-C1-H8= 95.2555     Cl2-H8-Cl3= 60.3468       H4-C1-H8=141.8458
      H4-Cl2-H8= 70.6972      H4-Cl3-H8= 70.6959       C1-C5-H8=109.9699
      Cl2-C5-H8= 89.3294      Cl3-C5-H8= 89.3329       H4-C5-H8=137.3122
       C1-H6-H8= 65.5516      Cl2-H8-H6=100.5143      Cl3-H6-H8= 72.9042
       H4-H6-H8= 89.6599       H6-C5-H8=109.3133       C1-H7-H8= 65.5516
      Cl2-H7-H8= 72.9005      Cl3-H8-H7=100.512        H4-H7-H8= 89.6614
       H7-C5-H8=109.3133       H6-H8-H7= 60.0825      C1-Cl2-X9= 90.    
      Cl3-C1-X9=122.9536     Cl3-Cl2-X9=107.9259       H4-C1-X9=119.8747
      H4-Cl2-X9=104.1753      Cl3-H4-X9= 82.4186       C5-C1-X9= 81.5164
      Cl2-X9-C5=100.2005      Cl3-C5-X9= 83.0228       H4-C5-X9= 74.7051
       H6-C1-X9=110.3854       H6-H4-X9= 81.189        H6-C5-X9=168.5649
       H7-C1-X9= 67.9745      Cl2-X9-H7=113.8038       H4-H7-X9= 69.0711
       C5-H7-X9= 77.3509       H6-H7-X9=112.0336       H8-C1-X9= 68.9658
      Cl2-X9-H8=113.3727      Cl3-H8-X9= 78.4857       H4-X9-H8= 73.2403
       H8-C5-X9= 77.5276       H6-H8-X9=110.6429       H8-H7-X9= 68.7597
     C1-Cl2-O10=180.        Cl3-Cl2-O10=144.9997     H4-Cl2-O10=153.3991
     C5-Cl2-O10=148.6669     H7-Cl2-O10=132.4487     H8-Cl2-O10=132.9157
      C1-X9-O10=123.1647     X9-Cl2-O10= 90.          H4-X9-O10=113.9886
      C5-X9-O10=162.442       H7-X9-O10=157.7017      H8-X9-O10=157.6247
     C1-Cl2-H11=163.0645    Cl3-Cl2-H11=157.6102     H4-Cl2-H11=138.2599
     C5-Cl2-H11=144.7972     H7-Cl2-H11=123.8084     H8-Cl2-H11=137.8364
      C1-X9-H11=127.2825     X9-Cl2-H11= 90.          H4-X9-H11=112.7477
      C5-X9-H11=160.4411      H7-X9-H11=141.8096      H8-X9-H11=172.7387
    Cl2-O10-H11=127.74       X9-O10-H11=122.7954     C1-Cl2-H12=163.0645
    Cl3-Cl2-H12=129.9887     H4-Cl2-H12=164.7027     C5-Cl2-H12=144.7972
     H7-Cl2-H12=137.299      H8-Cl2-H12=124.1633      C1-X9-H12=127.2825
     X9-Cl2-H12= 90.          H4-X9-H12=124.0292      C5-X9-H12=160.4411
      H7-X9-H12=172.5593      H8-X9-H12=141.8186    Cl2-O10-H12=127.74  
     X9-O10-H12=122.7954    Cl2-H11-H12= 73.0645     X9-H11-H12= 74.2251
    H11-O10-H12=104.52  
 Stoichiometry    C2H6Cl2O
 Framework group  C1[X(C2H6Cl2O)]
 Deg. of freedom    27
 Full point group                 C1
 Largest Abelian subgroup         C1      NOp   1
 Largest concise Abelian subgroup C1      NOp   1
                         Standard orientation:                         
 ---------------------------------------------------------------------
 Center     Atomic     Atomic              Coordinates (Angstroms)
 Number     Number      Type              X           Y           Z
 ---------------------------------------------------------------------
    1          6             0       -0.754540    0.404335    0.440063
    2         17             0        0.986182    0.064631    0.142400
    3         17             0       -1.754401   -0.989153   -0.100845
    4          1             0       -0.872288    0.459308    1.528572
    5          6             0       -1.179556    1.674030   -0.271920
    6          1             0       -2.240757    1.873898   -0.060607
    7          1             0       -0.569864    2.516425    0.087793
    8          1             0       -1.039827    1.561100   -1.356231
    9          8             0        2.825282   -0.294271   -0.172086
   10          1             0        3.576160    0.000048    0.343462
   11          1             0        3.208610   -0.809931   -0.881583
 ---------------------------------------------------------------------
 Rotational constants (GHZ):      5.4045159      1.5143461      1.2401089
 Standard basis: Aug-CC-pVDZ (5D, 7F)
 There are   177 symmetry adapted basis functions of A   symmetry.
 Integral buffers will be    131072 words long.
 Raffenetti 1 integral format.
 Two-electron integral symmetry is turned on.
   177 basis functions,   361 primitive gaussians,   187 cartesian basis functions
    30 alpha electrons       30 beta electrons
       nuclear repulsion energy       300.5500800314 Hartrees.
 NAtoms=   11 NActive=   11 NUniq=   11 SFac= 7.50D-01 NAtFMM=   80 NAOKFM=F Big=F
 One-electron integrals computed using PRISM.
 NBasis=   177 RedAO= T  NBF=   177
 NBsUse=   177 1.00D-06 NBFU=   177
 Initial guess read from the read-write file:
 Initial guess orbital symmetries:
       Occupied  (A) (A) (A) (A) (A) (A) (A) (A) (A) (A) (A) (A)
                 (A) (A) (A) (A) (A) (A) (A) (A) (A) (A) (A) (A)
                 (A) (A) (A) (A) (A) (A)
       Virtual   (A) (A) (A) (A) (A) (A) (A) (A) (A) (A) (A) (A)
                 (A) (A) (A) (A) (A) (A) (A) (A) (A) (A) (A) (A)
                 (A) (A) (A) (A) (A) (A) (A) (A) (A) (A) (A) (A)
                 (A) (A) (A) (A) (A) (A) (A) (A) (A) (A) (A) (A)
                 (A) (A) (A) (A) (A) (A) (A) (A) (A) (A) (A) (A)
                 (A) (A) (A) (A) (A) (A) (A) (A) (A) (A) (A) (A)
                 (A) (A) (A) (A) (A) (A) (A) (A) (A) (A) (A) (A)
                 (A) (A) (A) (A) (A) (A) (A) (A) (A) (A) (A) (A)
                 (A) (A) (A) (A) (A) (A) (A) (A) (A) (A) (A) (A)
                 (A) (A) (A) (A) (A) (A) (A) (A) (A) (A) (A) (A)
                 (A) (A) (A) (A) (A) (A) (A) (A) (A) (A) (A) (A)
                 (A) (A) (A) (A) (A) (A) (A) (A) (A) (A) (A) (A)
                 (A) (A) (A)
 Harris functional with IExCor=  205 diagonalized for initial guess.
 ExpMin= 2.97D-02 ExpMax= 1.28D+05 ExpMxC= 1.24D+03 IAcc=3 IRadAn=         5 AccDes= 0.00D+00
 HarFok:  IExCor= 205 AccDes= 0.00D+00 IRadAn=         5 IDoV=1
 ScaDFX=  1.000000  1.000000  1.000000  1.000000
 Requested convergence on RMS density matrix=1.00D-08 within 128 cycles.
 Requested convergence on MAX density matrix=1.00D-06.
 Requested convergence on             energy=1.00D-06.
 No special actions if energy rises.
 SCF Done:  E(RHF) =  -1073.03792484     A.U. after   11 cycles
             Convg  =    0.7052D-08             -V/T =  1.9997
             S**2   =   0.0000
 ExpMin= 2.97D-02 ExpMax= 1.28D+05 ExpMxC= 1.24D+03 IAcc=3 IRadAn=         5 AccDes= 0.00D+00
 HarFok:  IExCor= 205 AccDes= 0.00D+00 IRadAn=         5 IDoV=1
 ScaDFX=  1.000000  1.000000  1.000000  1.000000
 Range of M.O.s used for correlation:    14   177
 NBasis=   177 NAE=    30 NBE=    30 NFC=    13 NFV=     0
 NROrb=    164 NOA=    17 NOB=    17 NVA=   147 NVB=   147

 **** Warning!!: The largest alpha MO coefficient is  0.26065655D+02

 Fully direct method using O(OVN) memory.
 JobTyp=1 Pass  1:  I=   1 to  17 NPSUse=  1 ParTrn=F ParDer=F DoDerP=F.
 Spin components of T(2) and E(2):
     alpha-alpha T2 =       0.3912789506D-01 E2=     -0.1074610638D+00
     alpha-beta  T2 =       0.2110589487D+00 E2=     -0.6160608023D+00
     beta-beta   T2 =       0.3912789506D-01 E2=     -0.1074610638D+00
 ANorm=    0.1135479960D+01
 E2 =    -0.8309829299D+00 EUMP2 =    -0.10738689077681D+04
 Variable Step   Value    
 -------- ---- -----------
     1       5    3.779452
 ------------------------------------------------------------------------
                         Z-MATRIX (ANGSTROMS AND DEGREES)
 CD Cent Atom  N1     Length/X     N2    Alpha/Y     N3     Beta/Z      J
 ------------------------------------------------------------------------
   1   1  C     0   0.000000          0.338016          0.437380
   2   2  Cl    0   1.473127         -0.559367         -0.071261
   3   3  Cl    0  -1.473129         -0.559363         -0.071261
   4   4  H     0   0.000002          0.326972          1.533563
   5   5  C     0   0.000004          1.737706         -0.146189
   6   6  H     0  -0.898183          2.275207          0.193075
   7   7  H     0   0.898132          2.275242          0.193175
   8   8  H     0   0.000066          1.686646         -1.244096
   9      X     2   1.000000(  8)   1   90.000( 18)   5    0.000( 27)   0
  10   9  O     2   2.000000(  9)   9   90.000( 19)   1  180.000( 28)   0
  11  10  H    10   0.957200( 10)   2  127.740( 20)   9   90.000( 29)   0
  12  11  H    10   0.957200( 11)   2  127.740( 21)   9  -90.000( 30)   0
 ------------------------------------------------------------------------
                         Z-Matrix orientation:                         
 ---------------------------------------------------------------------
 Center     Atomic     Atomic              Coordinates (Angstroms)
 Number     Number      Type              X           Y           Z
 ---------------------------------------------------------------------
    1          6             0        0.000000    0.338016    0.437380
    2         17             0        1.473127   -0.559367   -0.071261
    3         17             0       -1.473129   -0.559363   -0.071261
    4          1             0        0.000002    0.326972    1.533563
    5          6             0        0.000004    1.737706   -0.146189
    6          1             0       -0.898183    2.275207    0.193075
    7          1             0        0.898132    2.275242    0.193175
    8          1             0        0.000066    1.686646   -1.244096
    9         -1             0        1.780915    0.239135   -0.588621
   10          8             0        3.111423   -1.557366   -0.636932
   11          1             0        3.957717   -1.594824   -0.191268
   12          1             0        3.224978   -2.104617   -1.414011
 ---------------------------------------------------------------------
                    Distance matrix (angstroms):
                    1          2          3          4          5
     1  C    0.000000
     2  Cl   1.798365   0.000000
     3  Cl   1.798364   2.946256   0.000000
     4  H    1.096239   2.351841   2.351843   0.000000
     5  C    1.516471   2.729881   2.729883   2.193567   0.000000
     6  H    2.149215   3.705104   2.904346   2.529677   1.100340
     7  H    2.149214   2.904402   3.705103   2.529631   1.100339
     8  H    2.155496   2.930874   2.930939   3.092588   1.099094
     9  X    2.057697   1.000000   3.390290   2.771829   2.369200
    10  O    3.798365   2.000000   4.725898   4.235885   4.558427
    11  H    4.449112   2.694394   5.529979   4.725659   5.174097
    12  H    4.449112   2.694394   5.124744   5.000129   5.174097
                    6          7          8          9         10
     6  H    0.000000
     7  H    1.796315   0.000000
     8  H    1.794078   1.794078   0.000000
     9  X    3.454592   2.352923   2.386705   0.000000
    10  O    5.608428   4.502957   4.535726   2.236068   0.000000
    11  H    6.221304   4.948360   5.247809   2.873980   0.957200
    12  H    6.226239   5.213485   4.980222   2.873980   0.957200
                   11         12
    11  H    0.000000
    12  H    1.513901   0.000000
                           Interatomic angles:
     Cl2-C1-Cl3=109.9993      Cl2-C1-H4=106.1285      Cl3-C1-H4=106.1287
     Cl2-H4-Cl3= 77.5659      Cl2-C1-C5=110.5931      Cl3-C1-C5=110.5933
     Cl2-C5-Cl3= 65.317        H4-C1-C5=113.2098      Cl2-H4-C5= 73.7303
      Cl3-H4-C5= 73.7303      Cl2-C1-H6=139.4601      Cl3-C1-H6= 94.3177
     Cl2-Cl3-H6= 78.5824       H4-C1-H6= 97.0507      Cl2-H4-H6= 98.6881
      Cl3-H4-H6= 72.9177       C1-C5-H6=109.4034      Cl2-C5-H6=147.4653
      Cl3-C5-H6= 87.827        H4-C5-H6= 94.4766      Cl2-C1-H7= 94.3202
      Cl3-C1-H7=139.4602     Cl3-Cl2-H7= 78.5814       H4-C1-H7= 97.0479
      Cl2-H4-H7= 72.9203      Cl3-H4-H7= 98.6893       C1-C5-H7=109.4033
      Cl2-C5-H7= 87.8303      Cl3-C5-H7=147.465        H4-C5-H7= 94.4738
       C1-H7-H6= 65.2979      Cl2-H7-H6=101.4171      Cl3-H6-H7=101.4191
       H4-H7-H6= 69.2048       H6-C5-H7=109.4233      Cl2-C1-H8= 95.2527
      Cl3-C1-H8= 95.2555     Cl2-H8-Cl3= 60.3468       H4-C1-H8=141.8458
      H4-Cl2-H8= 70.6972      H4-Cl3-H8= 70.6959       C1-C5-H8=109.9699
      Cl2-C5-H8= 89.3294      Cl3-C5-H8= 89.3329       H4-C5-H8=137.3122
       C1-H6-H8= 65.5516      Cl2-H8-H6=100.5143      Cl3-H6-H8= 72.9042
       H4-H6-H8= 89.6599       H6-C5-H8=109.3133       C1-H7-H8= 65.5516
      Cl2-H7-H8= 72.9005      Cl3-H8-H7=100.512        H4-H7-H8= 89.6614
       H7-C5-H8=109.3133       H6-H8-H7= 60.0825      C1-Cl2-X9= 90.    
      Cl3-C1-X9=122.9536     Cl3-Cl2-X9=107.9259       H4-C1-X9=119.8747
      H4-Cl2-X9=104.1753      Cl3-H4-X9= 82.4186       C5-C1-X9= 81.5164
      Cl2-X9-C5=100.2005      Cl3-C5-X9= 83.0228       H4-C5-X9= 74.7051
       H6-C1-X9=110.3854       H6-H4-X9= 81.189        H6-C5-X9=168.5649
       H7-C1-X9= 67.9745      Cl2-X9-H7=113.8038       H4-H7-X9= 69.0711
       C5-H7-X9= 77.3509       H6-H7-X9=112.0336       H8-C1-X9= 68.9658
      Cl2-X9-H8=113.3727      Cl3-H8-X9= 78.4857       H4-X9-H8= 73.2403
       H8-C5-X9= 77.5276       H6-H8-X9=110.6429       H8-H7-X9= 68.7597
     C1-Cl2-O10=180.        Cl3-Cl2-O10=144.9997     H4-Cl2-O10=153.3991
     C5-Cl2-O10=148.6669     H7-Cl2-O10=132.4487     H8-Cl2-O10=132.9157
      C1-X9-O10=124.3582     X9-Cl2-O10= 90.          H4-X9-O10=115.1067
      C5-X9-O10=163.6355      H7-X9-O10=157.7686      H8-X9-O10=157.7151
     C1-Cl2-H11=163.684     Cl3-Cl2-H11=157.24       H4-Cl2-H11=138.8354
     C5-Cl2-H11=145.0607     H7-Cl2-H11=124.172      H8-Cl2-H11=137.7436
      C1-X9-H11=128.1166     X9-Cl2-H11= 90.          H4-X9-H11=113.6414
      C5-X9-H11=161.2901      H7-X9-H11=142.2263      H8-X9-H11=171.9461
    Cl2-O10-H11=127.74       X9-O10-H11=123.193      C1-Cl2-H12=163.684 
    Cl3-Cl2-H12=130.5555     H4-Cl2-H12=164.4618     C5-Cl2-H12=145.0607
     H7-Cl2-H12=137.2073     H8-Cl2-H12=124.5312      C1-X9-H12=128.1166
     X9-Cl2-H12= 90.          H4-X9-H12=124.6499      C5-X9-H12=161.2901
      H7-X9-H12=171.7464      H8-X9-H12=142.245     Cl2-O10-H12=127.74  
     X9-O10-H12=123.193     Cl2-H11-H12= 73.684      X9-H12-H11= 74.7293
    H11-O10-H12=104.52  
 Stoichiometry    C2H6Cl2O
 Framework group  C1[X(C2H6Cl2O)]
 Deg. of freedom    27
 Full point group                 C1
 Largest Abelian subgroup         C1      NOp   1
 Largest concise Abelian subgroup C1      NOp   1
                         Standard orientation:                         
 ---------------------------------------------------------------------
 Center     Atomic     Atomic              Coordinates (Angstroms)
 Number     Number      Type              X           Y           Z
 ---------------------------------------------------------------------
    1          6             0       -0.775110    0.403286    0.438901
    2         17             0        0.968995    0.074535    0.148842
    3         17             0       -1.763544   -0.997960   -0.102967
    4          1             0       -0.897533    0.459776    1.526817
    5          6             0       -1.205723    1.668619   -0.277471
    6          1             0       -2.269057    1.861873   -0.070779
    7          1             0       -0.603069    2.515807    0.082843
    8          1             0       -1.060951    1.554328   -1.360977
    9          8             0        2.908653   -0.291077   -0.173738
   10          1             0        3.655511    0.009317    0.344140
   11          1             0        3.298205   -0.805677   -0.880610
 ---------------------------------------------------------------------
 Rotational constants (GHZ):      5.3784945      1.4691862      1.2090463
 Standard basis: Aug-CC-pVDZ (5D, 7F)
 There are   177 symmetry adapted basis functions of A   symmetry.
 Integral buffers will be    131072 words long.
 Raffenetti 1 integral format.
 Two-electron integral symmetry is turned on.
   177 basis functions,   361 primitive gaussians,   187 cartesian basis functions
    30 alpha electrons       30 beta electrons
       nuclear repulsion energy       297.5995439688 Hartrees.
 NAtoms=   11 NActive=   11 NUniq=   11 SFac= 7.50D-01 NAtFMM=   80 NAOKFM=F Big=F
 One-electron integrals computed using PRISM.
 NBasis=   177 RedAO= T  NBF=   177
 NBsUse=   177 1.00D-06 NBFU=   177
 Initial guess read from the read-write file:
[...]
 Center     Atomic     Atomic              Coordinates (Angstroms)
 Number     Number      Type              X           Y           Z
 ---------------------------------------------------------------------
    1          6             0        1.499055    0.371218   -0.398383
    2         17             0       -0.290162    0.242493   -0.270923
    3         17             0        2.266609   -1.158839    0.152888
    4          1             0        1.722831    0.455963   -1.468188
    5          6             0        2.008479    1.546272    0.413665
    6          1             0        3.101121    1.618822    0.305886
    7          1             0        1.542311    2.473248    0.047401
    8          1             0        1.756281    1.407042    1.474334
    9          8             0       -6.160153   -0.179824    0.147243
   10          1             0       -6.818457    0.228293   -0.415170
   11          1             0       -6.667652   -0.671815    0.792704
 ---------------------------------------------------------------------
 Rotational constants (GHZ):      4.8752345      0.5117351      0.4743479
 Standard basis: Aug-CC-pVDZ (5D, 7F)
 There are   177 symmetry adapted basis functions of A   symmetry.
 Integral buffers will be    131072 words long.
 Raffenetti 1 integral format.
 Two-electron integral symmetry is turned on.
   177 basis functions,   361 primitive gaussians,   187 cartesian basis functions
    30 alpha electrons       30 beta electrons
       nuclear repulsion energy       252.6896565202 Hartrees.
 NAtoms=   11 NActive=   11 NUniq=   11 SFac= 7.50D-01 NAtFMM=   80 NAOKFM=F Big=F
 One-electron integrals computed using PRISM.
 NBasis=   177 RedAO= T  NBF=   177
 NBsUse=   177 1.00D-06 NBFU=   177
 Initial guess read from the read-write file:
 Initial guess orbital symmetries:
       Occupied  (A) (A) (A) (A) (A) (A) (A) (A) (A) (A) (A) (A)
                 (A) (A) (A) (A) (A) (A) (A) (A) (A) (A) (A) (A)
                 (A) (A) (A) (A) (A) (A)
       Virtual   (A) (A) (A) (A) (A) (A) (A) (A) (A) (A) (A) (A)
                 (A) (A) (A) (A) (A) (A) (A) (A) (A) (A) (A) (A)
                 (A) (A) (A) (A) (A) (A) (A) (A) (A) (A) (A) (A)
                 (A) (A) (A) (A) (A) (A) (A) (A) (A) (A) (A) (A)
                 (A) (A) (A) (A) (A) (A) (A) (A) (A) (A) (A) (A)
                 (A) (A) (A) (A) (A) (A) (A) (A) (A) (A) (A) (A)
                 (A) (A) (A) (A) (A) (A) (A) (A) (A) (A) (A) (A)
                 (A) (A) (A) (A) (A) (A) (A) (A) (A) (A) (A) (A)
                 (A) (A) (A) (A) (A) (A) (A) (A) (A) (A) (A) (A)
                 (A) (A) (A) (A) (A) (A) (A) (A) (A) (A) (A) (A)
                 (A) (A) (A) (A) (A) (A) (A) (A) (A) (A) (A) (A)
                 (A) (A) (A) (A) (A) (A) (A) (A) (A) (A) (A) (A)
                 (A) (A) (A)
 Harris functional with IExCor=  205 diagonalized for initial guess.
 ExpMin= 2.97D-02 ExpMax= 1.28D+05 ExpMxC= 1.24D+03 IAcc=3 IRadAn=         5 AccDes= 0.00D+00
 HarFok:  IExCor= 205 AccDes= 0.00D+00 IRadAn=         5 IDoV=1
 ScaDFX=  1.000000  1.000000  1.000000  1.000000
 Requested convergence on RMS density matrix=1.00D-08 within 128 cycles.
 Requested convergence on MAX density matrix=1.00D-06.
 Requested convergence on             energy=1.00D-06.
 No special actions if energy rises.
 SCF Done:  E(RHF) =  -1073.12531682     A.U. after    8 cycles
             Convg  =    0.7794D-08             -V/T =  2.0003
             S**2   =   0.0000
 ExpMin= 2.97D-02 ExpMax= 1.28D+05 ExpMxC= 1.24D+03 IAcc=3 IRadAn=         5 AccDes= 0.00D+00
 HarFok:  IExCor= 205 AccDes= 0.00D+00 IRadAn=         5 IDoV=1
 ScaDFX=  1.000000  1.000000  1.000000  1.000000
 Range of M.O.s used for correlation:    14   177
 NBasis=   177 NAE=    30 NBE=    30 NFC=    13 NFV=     0
 NROrb=    164 NOA=    17 NOB=    17 NVA=   147 NVB=   147

 **** Warning!!: The largest alpha MO coefficient is  0.27446266D+02

 Fully direct method using O(OVN) memory.
 JobTyp=1 Pass  1:  I=   1 to  17 NPSUse=  1 ParTrn=F ParDer=F DoDerP=F.
 Spin components of T(2) and E(2):
     alpha-alpha T2 =       0.3785979618D-01 E2=     -0.1037039043D+00
     alpha-beta  T2 =       0.2093354579D+00 E2=     -0.6086257509D+00
     beta-beta   T2 =       0.3785979618D-01 E2=     -0.1037039043D+00
 ANorm=    0.1133602686D+01
 E2 =    -0.8160335595D+00 EUMP2 =    -0.10739413503828D+04
 Variable Step   Value    
 -------- ---- -----------
     1      45   11.338357
 ------------------------------------------------------------------------
                         Z-MATRIX (ANGSTROMS AND DEGREES)
 CD Cent Atom  N1     Length/X     N2    Alpha/Y     N3     Beta/Z      J
 ------------------------------------------------------------------------
   1   1  C     0   0.000000          0.338016          0.437380
   2   2  Cl    0   1.473127         -0.559367         -0.071261
   3   3  Cl    0  -1.473129         -0.559363         -0.071261
   4   4  H     0   0.000002          0.326972          1.533563
   5   5  C     0   0.000004          1.737706         -0.146189
   6   6  H     0  -0.898183          2.275207          0.193075
   7   7  H     0   0.898132          2.275242          0.193175
   8   8  H     0   0.000066          1.686646         -1.244096
   9      X     2   1.000000(  8)   1   90.000( 18)   5    0.000( 27)   0
  10   9  O     2   6.000000(  9)   9   90.000( 19)   1  180.000( 28)   0
  11  10  H    10   0.957200( 10)   2  127.740( 20)   9   90.000( 29)   0
  12  11  H    10   0.957200( 11)   2  127.740( 21)   9  -90.000( 30)   0
 ------------------------------------------------------------------------
                         Z-Matrix orientation:                         
 ---------------------------------------------------------------------
 Center     Atomic     Atomic              Coordinates (Angstroms)
 Number     Number      Type              X           Y           Z
 ---------------------------------------------------------------------
    1          6             0        0.000000    0.338016    0.437380
    2         17             0        1.473127   -0.559367   -0.071261
    3         17             0       -1.473129   -0.559363   -0.071261
    4          1             0        0.000002    0.326972    1.533563
    5          6             0        0.000004    1.737706   -0.146189
    6          1             0       -0.898183    2.275207    0.193075
    7          1             0        0.898132    2.275242    0.193175
    8          1             0        0.000066    1.686646   -1.244096
    9         -1             0        1.780915    0.239135   -0.588621
   10          8             0        6.388016   -3.553364   -1.768273
   11          1             0        7.234310   -3.590822   -1.322610
   12          1             0        6.501571   -4.100615   -2.545353
 ---------------------------------------------------------------------
                    Distance matrix (angstroms):
                    1          2          3          4          5
     1  C    0.000000
     2  Cl   1.798365   0.000000
     3  Cl   1.798364   2.946256   0.000000
     4  H    1.096239   2.351841   2.351843   0.000000
     5  C    1.516471   2.729881   2.729883   2.193567   0.000000
     6  H    2.149215   3.705104   2.904346   2.529677   1.100340
     7  H    2.149214   2.904402   3.705103   2.529631   1.100339
     8  H    2.155496   2.930874   2.930939   3.092588   1.099094
     9  X    2.057697   1.000000   3.390290   2.771829   2.369200
    10  O    7.798365   6.000000   8.581462   8.171037   8.451821
    11  H    8.418347   6.629240   9.304574   8.708734   9.061587
    12  H    8.418347   6.629240   9.069589   8.860671   9.061587
                    6          7          8          9         10
     6  H    0.000000
     7  H    1.796315   0.000000
     8  H    1.794078   1.794078   0.000000
     9  X    3.454592   2.352923   2.386705   0.000000
    10  O    9.534559   8.243710   8.278790   6.082763   0.000000
    11  H   10.141254   8.766725   8.955005   6.704239   0.957200
    12  H   10.144282   8.919059   8.800865   6.704239   0.957200
                   11         12
    11  H    0.000000
    12  H    1.513901   0.000000
                           Interatomic angles:
     Cl2-C1-Cl3=109.9993      Cl2-C1-H4=106.1285      Cl3-C1-H4=106.1287
     Cl2-H4-Cl3= 77.5659      Cl2-C1-C5=110.5931      Cl3-C1-C5=110.5933
     Cl2-C5-Cl3= 65.317        H4-C1-C5=113.2098      Cl2-H4-C5= 73.7303
      Cl3-H4-C5= 73.7303      Cl2-C1-H6=139.4601      Cl3-C1-H6= 94.3177
     Cl2-Cl3-H6= 78.5824       H4-C1-H6= 97.0507      Cl2-H4-H6= 98.6881
      Cl3-H4-H6= 72.9177       C1-C5-H6=109.4034      Cl2-C5-H6=147.4653
      Cl3-C5-H6= 87.827        H4-C5-H6= 94.4766      Cl2-C1-H7= 94.3202
      Cl3-C1-H7=139.4602     Cl3-Cl2-H7= 78.5814       H4-C1-H7= 97.0479
      Cl2-H4-H7= 72.9203      Cl3-H4-H7= 98.6893       C1-C5-H7=109.4033
      Cl2-C5-H7= 87.8303      Cl3-C5-H7=147.465        H4-C5-H7= 94.4738
       C1-H7-H6= 65.2979      Cl2-H7-H6=101.4171      Cl3-H6-H7=101.4191
       H4-H7-H6= 69.2048       H6-C5-H7=109.4233      Cl2-C1-H8= 95.2527
      Cl3-C1-H8= 95.2555     Cl2-H8-Cl3= 60.3468       H4-C1-H8=141.8458
      H4-Cl2-H8= 70.6972      H4-Cl3-H8= 70.6959       C1-C5-H8=109.9699
      Cl2-C5-H8= 89.3294      Cl3-C5-H8= 89.3329       H4-C5-H8=137.3122
       C1-H6-H8= 65.5516      Cl2-H8-H6=100.5143      Cl3-H6-H8= 72.9042
       H4-H6-H8= 89.6599       H6-C5-H8=109.3133       C1-H7-H8= 65.5516
      Cl2-H7-H8= 72.9005      Cl3-H8-H7=100.512        H4-H7-H8= 89.6614
       H7-C5-H8=109.3133       H6-H8-H7= 60.0825      C1-Cl2-X9= 90.    
      Cl3-C1-X9=122.9536     Cl3-Cl2-X9=107.9259       H4-C1-X9=119.8747
      H4-Cl2-X9=104.1753      Cl3-H4-X9= 82.4186       C5-C1-X9= 81.5164
      Cl2-X9-C5=100.2005      Cl3-C5-X9= 83.0228       H4-C5-X9= 74.7051
       H6-C1-X9=110.3854       H6-H4-X9= 81.189        H6-C5-X9=168.5649
       H7-C1-X9= 67.9745      Cl2-X9-H7=113.8038       H4-H7-X9= 69.0711
       C5-H7-X9= 77.3509       H6-H7-X9=112.0336       H8-C1-X9= 68.9658
      Cl2-X9-H8=113.3727      Cl3-H8-X9= 78.4857       H4-X9-H8= 73.2403
       H8-C5-X9= 77.5276       H6-H8-X9=110.6429       H8-H7-X9= 68.7597
    H11-O10-H12=104.52  
 Stoichiometry    C2H6Cl2O
 Framework group  C1[X(C2H6Cl2O)]
 Deg. of freedom    27
 Full point group                 C1
 Largest Abelian subgroup         C1      NOp   1
 Largest concise Abelian subgroup C1      NOp   1
                         Standard orientation:                         
 ---------------------------------------------------------------------
 Center     Atomic     Atomic              Coordinates (Angstroms)
 Number     Number      Type              X           Y           Z
 ---------------------------------------------------------------------
    1          6             0        1.516558    0.370697   -0.397657
    2         17             0       -0.272964    0.244194   -0.272268
    3         17             0        2.281533   -1.160663    0.153581
    4          1             0        1.741637    0.455773   -1.467162
    5          6             0        2.026582    1.544625    0.415640
    6          1             0        3.119436    1.615836    0.309122
    7          1             0        1.562013    2.472411    0.049394
    8          1             0        1.773022    1.405106    1.475946
    9          8             0       -6.243462   -0.177866    0.146078
   10          1             0       -6.900615    0.231421   -0.416831
   11          1             0       -6.752313   -0.669578    0.790688
 ---------------------------------------------------------------------
 Rotational constants (GHZ):      4.8693389      0.5002479      0.4644439
 Standard basis: Aug-CC-pVDZ (5D, 7F)
 There are   177 symmetry adapted basis functions of A   symmetry.
 Integral buffers will be    131072 words long.
 Raffenetti 1 integral format.
 Two-electron integral symmetry is turned on.
   177 basis functions,   361 primitive gaussians,   187 cartesian basis functions
    30 alpha electrons       30 beta electrons
       nuclear repulsion energy       252.2043855527 Hartrees.
 NAtoms=   11 NActive=   11 NUniq=   11 SFac= 7.50D-01 NAtFMM=   80 NAOKFM=F Big=F
 One-electron integrals computed using PRISM.
 NBasis=   177 RedAO= T  NBF=   177
 NBsUse=   177 1.00D-06 NBFU=   177
 Initial guess read from the read-write file:
 Initial guess orbital symmetries:
       Occupied  (A) (A) (A) (A) (A) (A) (A) (A) (A) (A) (A) (A)
                 (A) (A) (A) (A) (A) (A) (A) (A) (A) (A) (A) (A)
                 (A) (A) (A) (A) (A) (A)
       Virtual   (A) (A) (A) (A) (A) (A) (A) (A) (A) (A) (A) (A)
                 (A) (A) (A) (A) (A) (A) (A) (A) (A) (A) (A) (A)
                 (A) (A) (A) (A) (A) (A) (A) (A) (A) (A) (A) (A)
                 (A) (A) (A) (A) (A) (A) (A) (A) (A) (A) (A) (A)
                 (A) (A) (A) (A) (A) (A) (A) (A) (A) (A) (A) (A)
                 (A) (A) (A) (A) (A) (A) (A) (A) (A) (A) (A) (A)
                 (A) (A) (A) (A) (A) (A) (A) (A) (A) (A) (A) (A)
                 (A) (A) (A) (A) (A) (A) (A) (A) (A) (A) (A) (A)
                 (A) (A) (A) (A) (A) (A) (A) (A) (A) (A) (A) (A)
                 (A) (A) (A) (A) (A) (A) (A) (A) (A) (A) (A) (A)
                 (A) (A) (A) (A) (A) (A) (A) (A) (A) (A) (A) (A)
                 (A) (A) (A) (A) (A) (A) (A) (A) (A) (A) (A) (A)
                 (A) (A) (A)
 Harris functional with IExCor=  205 diagonalized for initial guess.
 ExpMin= 2.97D-02 ExpMax= 1.28D+05 ExpMxC= 1.24D+03 IAcc=3 IRadAn=         5 AccDes= 0.00D+00
 HarFok:  IExCor= 205 AccDes= 0.00D+00 IRadAn=         5 IDoV=1
 ScaDFX=  1.000000  1.000000  1.000000  1.000000
 Requested convergence on RMS density matrix=1.00D-08 within 128 cycles.
 Requested convergence on MAX density matrix=1.00D-06.
 Requested convergence on             energy=1.00D-06.
 No special actions if energy rises.
 SCF Done:  E(RHF) =  -1073.12531958     A.U. after    8 cycles
             Convg  =    0.7504D-08             -V/T =  2.0003
             S**2   =   0.0000
 ExpMin= 2.97D-02 ExpMax= 1.28D+05 ExpMxC= 1.24D+03 IAcc=3 IRadAn=         5 AccDes= 0.00D+00
 HarFok:  IExCor= 205 AccDes= 0.00D+00 IRadAn=         5 IDoV=1
 ScaDFX=  1.000000  1.000000  1.000000  1.000000
 Range of M.O.s used for correlation:    14   177
 NBasis=   177 NAE=    30 NBE=    30 NFC=    13 NFV=     0
 NROrb=    164 NOA=    17 NOB=    17 NVA=   147 NVB=   147

 **** Warning!!: The largest alpha MO coefficient is  0.27446008D+02

 Fully direct method using O(OVN) memory.
 JobTyp=1 Pass  1:  I=   1 to  17 NPSUse=  1 ParTrn=F ParDer=F DoDerP=F.
 Spin components of T(2) and E(2):
     alpha-alpha T2 =       0.3785912316D-01 E2=     -0.1037024733D+00
     alpha-beta  T2 =       0.2093331044D+00 E2=     -0.6086195406D+00
     beta-beta   T2 =       0.3785912316D-01 E2=     -0.1037024733D+00
 ANorm=    0.1133601054D+01
 E2 =    -0.8160244872D+00 EUMP2 =    -0.10739413440714D+04
 Scan completed.

 Summary of the potential surface scan:
   N      roh         SCF          MP2    
 ----  ---------  -----------  -----------
    1     1.5000  -1072.83552  -1073.67275
    2     1.6000  -1072.90702  -1073.74367
    3     1.7000  -1072.96240  -1073.79766
    4     1.8000  -1073.00523  -1073.83847
    5     1.9000  -1073.03792  -1073.86891
    6     2.0000  -1073.06251  -1073.89130
    7     2.1000  -1073.08071  -1073.90755
    8     2.2000  -1073.09402  -1073.91917
    9     2.3000  -1073.10363  -1073.92736
   10     2.4000  -1073.11049  -1073.93303
   11     2.5000  -1073.11532  -1073.93686
   12     2.6000  -1073.11869  -1073.93939
   13     2.7000  -1073.12101  -1073.94100
   14     2.8000  -1073.12258  -1073.94197
   15     2.9000  -1073.12363  -1073.94252
   16     3.0000  -1073.12432  -1073.94279
   17     3.1000  -1073.12477  -1073.94287
   18     3.2000  -1073.12505  -1073.94285
   19     3.3000  -1073.12522  -1073.94277
   20     3.4000  -1073.12532  -1073.94266
   21     3.5000  -1073.12537  -1073.94253
   22     3.6000  -1073.12539  -1073.94240
   23     3.7000  -1073.12540  -1073.94228
   24     3.8000  -1073.12540  -1073.94216
   25     3.9000  -1073.12539  -1073.94205
   26     4.0000  -1073.12537  -1073.94196
   27     4.1000  -1073.12536  -1073.94188
   28     4.2000  -1073.12535  -1073.94180
   29     4.3000  -1073.12534  -1073.94174
   30     4.4000  -1073.12533  -1073.94168
   31     4.5000  -1073.12532  -1073.94163
   32     4.6000  -1073.12532  -1073.94159
   33     4.7000  -1073.12531  -1073.94155
   34     4.8000  -1073.12531  -1073.94152
   35     4.9000  -1073.12531  -1073.94149
   36     5.0000  -1073.12531  -1073.94147
   37     5.1000  -1073.12531  -1073.94145
   38     5.2000  -1073.12531  -1073.94143
   39     5.3000  -1073.12531  -1073.94141
   40     5.4000  -1073.12531  -1073.94140
   41     5.5000  -1073.12531  -1073.94139
   42     5.6000  -1073.12531  -1073.94138
   43     5.7000  -1073.12531  -1073.94137
   44     5.8000  -1073.12531  -1073.94136
   45     5.9000  -1073.12532  -1073.94135
   46     6.0000  -1073.12532  -1073.94134
 ----  ---------  -----------  -----------
  
 1\1\GINC-N081\Scan\RMP2-FC\Aug-CC-pVDZ\C2H6Cl2O1\FYLIN\13-Apr-2016\1\\
 #MP2/aug-cc-pVDZ scan\\CL1...OHH 90.0 degrees, mp2/aug-cc-pVDZ\\0,1\C,
 0,0.,0.338016,0.43738\Cl,0,1.473127,-0.559367,-0.071261\Cl,0,-1.473129
 ,-0.559363,-0.071261\H,0,0.000002,0.326972,1.533563\C,0,0.000004,1.737
 706,-0.146189\H,0,-0.898183,2.275207,0.193075\H,0,0.898132,2.275242,0.
 193175\H,0,0.000066,1.686646,-1.244096\X,2,1.,1,90.,5,0.,0\O,2,roh,9,9
 0.,1,180.,0\H,10,0.9572,2,127.74,9,90.,0\H,10,0.9572,2,127.74,9,-90.,0
 \\roh=1.5,s,45,0.1\\Version=AM64L-G03RevD.02\HF=-1072.8355174,-1072.90
 70227,-1072.9624001,-1073.0052273,-1073.0379248,-1073.0625053,-1073.08
 07146,-1073.0940249,-1073.1036344,-1073.1104899,-1073.1153234,-1073.11
 86907,-1073.1210074,-1073.1225797,-1073.123631,-1073.1243222,-1073.124
 7678,-1073.1250481,-1073.1252188,-1073.1253177,-1073.1253704,-1073.125
 3941,-1073.1253999,-1073.1253954,-1073.1253854,-1073.1253732,-1073.125
 3607,-1073.125349,-1073.1253388,-1073.1253301,-1073.1253231,-1073.1253
 175,-1073.1253132,-1073.1253099,-1073.1253077,-1073.1253062,-1073.1253
 054,-1073.1253053,-1073.1253058,-1073.1253067,-1073.1253081,-1073.1253
 098,-1073.1253119,-1073.1253143,-1073.1253168,-1073.1253196\MP2=-1073.
 6727542,-1073.7436671,-1073.7976575,-1073.8384668,-1073.8689078,-1073.
 8913003,-1073.9075486,-1073.9191737,-1073.9273626,-1073.9330276,-1073.
 9368625,-1073.9393896,-1073.9409975,-1073.9419718,-1073.9425188,-1073.
 9427854,-1073.9428738,-1073.9428537,-1073.9427716,-1073.9426575,-1073.
 9425302,-1073.9424011,-1073.9422768,-1073.9421608,-1073.942055,-1073.9
 419598,-1073.9418754,-1073.9418011,-1073.9417362,-1073.9416798,-1073.9
 416309,-1073.9415886,-1073.9415519,-1073.9415201,-1073.9414924,-1073.9
 414683,-1073.9414472,-1073.9414288,-1073.9414127,-1073.9413986,-1073.9
 413863,-1073.9413754,-1073.9413659,-1073.9413576,-1073.9413504,-1073.9
 413441\RMSD=7.300e-09,8.003e-09,5.359e-09,9.782e-09,7.052e-09,6.147e-0
 9,4.760e-09,3.728e-09,8.389e-09,7.156e-09,6.468e-09,6.021e-09,5.607e-0
 9,5.139e-09,4.547e-09,7.660e-09,7.674e-09,6.983e-09,6.975e-09,6.779e-0
 9,6.236e-09,5.401e-09,4.665e-09,4.296e-09,3.722e-09,3.865e-09,4.133e-0
 9,4.271e-09,4.289e-09,4.231e-09,3.190e-09,4.003e-09,3.868e-09,3.731e-0
 9,3.598e-09,3.468e-09,3.340e-09,3.211e-09,3.080e-09,9.580e-09,9.171e-0
 9,8.793e-09,8.438e-09,8.105e-09,7.794e-09,7.504e-09\Thermal=0.,0.,0.,0
 .,0.,0.,0.,0.,0.,0.,0.,0.,0.,0.,0.,0.,0.,0.,0.,0.,0.,0.,0.,0.,0.,0.,0.
 ,0.,0.,0.,0.,0.,0.,0.,0.,0.,0.,0.,0.,0.,0.,0.,0.,0.,0.,0.\PG=C01 [X(C2
 H6Cl2O1)]\\@


 IT IS BETTER TO THINK YOU ARE HALF DRY THAN TO KNOW YOU
 ARE ALL WET.  -- SNOOPY
 Job cpu time:  0 days  2 hours  4 minutes 24.9 seconds.
 File lengths (MBytes):  RWF=     38 Int=      0 D2E=      0 Chk=     19 Scr=      1
 Normal termination of Gaussian 03 at Wed Apr 13 12:55:21 2016.
