 Entering Gaussian System, Link 0=g03
 Initial command:
 /opt/mackerell/apps/gaussian/g03/l1.exe /tmp/fylin/gauss2783/Gau-2786.inp -scrdir=/tmp/fylin/gauss2783/
 Entering Link 1 = /opt/mackerell/apps/gaussian/g03/l1.exe PID=      2788.
  
 Copyright (c) 1988,1990,1992,1993,1995,1998,2003,2004, Gaussian, Inc.
                  All Rights Reserved.
  
 This is the Gaussian(R) 03 program.  It is based on the
 the Gaussian(R) 98 system (copyright 1998, Gaussian, Inc.),
 the Gaussian(R) 94 system (copyright 1995, Gaussian, Inc.),
 the Gaussian 92(TM) system (copyright 1992, Gaussian, Inc.),
 the Gaussian 90(TM) system (copyright 1990, Gaussian, Inc.),
 the Gaussian 88(TM) system (copyright 1988, Gaussian, Inc.),
 the Gaussian 86(TM) system (copyright 1986, Carnegie Mellon
 University), and the Gaussian 82(TM) system (copyright 1983,
 Carnegie Mellon University). Gaussian is a federally registered
 trademark of Gaussian, Inc.
  
 This software contains proprietary and confidential information,
 including trade secrets, belonging to Gaussian, Inc.
  
 This software is provided under written license and may be
 used, copied, transmitted, or stored only in accord with that
 written license.
  
 The following legend is applicable only to US Government
 contracts under FAR:
  
                    RESTRICTED RIGHTS LEGEND
  
 Use, reproduction and disclosure by the US Government is
 subject to restrictions as set forth in subparagraphs (a)
 and (c) of the Commercial Computer Software - Restricted
 Rights clause in FAR 52.227-19.
  
 Gaussian, Inc.
 340 Quinnipiac St., Bldg. 40, Wallingford CT 06492
  
  
 ---------------------------------------------------------------
 Warning -- This program may not be used in any manner that
 competes with the business of Gaussian, Inc. or will provide
 assistance to any competitor of Gaussian, Inc.  The licensee
 of this program is prohibited from giving any competitor of
 Gaussian, Inc. access to this program.  By using this program,
 the user acknowledges that Gaussian, Inc. is engaged in the
 business of creating and licensing software in the field of
 computational chemistry and represents and warrants to the
 licensee that it is not a competitor of Gaussian, Inc. and that
 it will not use this program in any manner prohibited above.
 ---------------------------------------------------------------
  

 Cite this work as:
 Gaussian 03, Revision D.02,
 M. J. Frisch, G. W. Trucks, H. B. Schlegel, G. E. Scuseria, 
 M. A. Robb, J. R. Cheeseman, J. A. Montgomery, Jr., T. Vreven, 
 K. N. Kudin, J. C. Burant, J. M. Millam, S. S. Iyengar, J. Tomasi, 
 V. Barone, B. Mennucci, M. Cossi, G. Scalmani, N. Rega, 
 G. A. Petersson, H. Nakatsuji, M. Hada, M. Ehara, K. Toyota, 
 R. Fukuda, J. Hasegawa, M. Ishida, T. Nakajima, Y. Honda, O. Kitao, 
 H. Nakai, M. Klene, X. Li, J. E. Knox, H. P. Hratchian, J. B. Cross, 
 V. Bakken, C. Adamo, J. Jaramillo, R. Gomperts, R. E. Stratmann, 
 O. Yazyev, A. J. Austin, R. Cammi, C. Pomelli, J. W. Ochterski, 
 P. Y. Ayala, K. Morokuma, G. A. Voth, P. Salvador, J. J. Dannenberg, 
 V. G. Zakrzewski, S. Dapprich, A. D. Daniels, M. C. Strain, 
 O. Farkas, D. K. Malick, A. D. Rabuck, K. Raghavachari, 
 J. B. Foresman, J. V. Ortiz, Q. Cui, A. G. Baboul, S. Clifford, 
 J. Cioslowski, B. B. Stefanov, G. Liu, A. Liashenko, P. Piskorz, 
 I. Komaromi, R. L. Martin, D. J. Fox, T. Keith, M. A. Al-Laham, 
 C. Y. Peng, A. Nanayakkara, M. Challacombe, P. M. W. Gill, 
 B. Johnson, W. Chen, M. W. Wong, C. Gonzalez, and J. A. Pople, 
 Gaussian, Inc., Wallingford CT, 2004.
 
 ******************************************
 Gaussian 03:  AM64L-G03RevD.02  1-Mar-2006
                 5-May-2016 
 ******************************************
 %mem=16MW
 ------------------------
 #MP3/6-31++G(3d,3p) scan
 ------------------------
 1/38=1,60=1/1,8;
 2/17=6,18=5,29=3,40=1/2;
 3/5=1,6=6,7=1515,11=9,16=1,25=1,30=1/1,2,3;
 4//1;
 5/5=2,38=5/2;
 8/6=3,9=120000,10=2/1,4;
 9/5=2/13;
 6/7=2,8=2,9=2,10=2,18=1/1;
 1/60=1/8(1);
 99/9=1/99;
 2/29=3/2;
 3/5=1,6=6,7=1515,11=9,16=1,25=1,30=1/1,2,3;
 4/5=5,16=3/1;
 5/5=2,38=5/2;
 8/6=3,9=120000,10=2/1,4;
 9/5=2/13;
 1/60=1/8(-6);
 99/9=1/99;
 --------------------
 C1H...He 0.0 degrees
 --------------------
 Symbolic Z-matrix:
 Charge =  0 Multiplicity = 1
 C1                    0.17303  -1.22654   0. 
 H1                   -0.38701  -2.16486   0. 
 C2                    1.58008  -1.2172    0. 
 H2                    2.12248  -2.16724   0. 
 C3                    2.28666   0.        0. 
 H3                    3.38009   0.        0. 
 C4                    1.58008   1.2172    0. 
 H4                    2.12248   2.16724   0. 
 C5                    0.17303   1.22654   0. 
 H5                   -0.38701   2.16486   0. 
 C6                   -0.51255   0.        0. 
 CL6                  -2.26665   0.        0. 
 x                    CL6   1.       C6    90.      C5    0.       0
 He                   CL6  roh      x     90.      C6    180.     0
       Variables:
  roh                   1.5    Scan 45    0.1    
 
 Scan the potential surface.
 Variable   Value     No. Steps Step-Size
 -------- ----------- --------- ---------
     1       1.500000      45      0.1000
 A total of     46 points will be computed.
 ------------------------------------------------------------------------
                         Z-MATRIX (ANGSTROMS AND DEGREES)
 CD Cent Atom  N1     Length/X     N2    Alpha/Y     N3     Beta/Z      J
 ------------------------------------------------------------------------
   1   1  C     0   0.173030         -1.226543          0.000000
   2   2  H     0  -0.387009         -2.164857          0.000000
   3   3  C     0   1.580080         -1.217204          0.000000
   4   4  H     0   2.122475         -2.167243          0.000000
   5   5  C     0   2.286660          0.000000          0.000000
   6   6  H     0   3.380093          0.000000          0.000000
   7   7  C     0   1.580080          1.217204          0.000000
   8   8  H     0   2.122476          2.167243          0.000000
   9   9  C     0   0.173029          1.226543          0.000000
  10  10  H     0  -0.387010          2.164857          0.000000
  11  11  C     0  -0.512547          0.000000          0.000000
  12  12  Cl    0  -2.266648          0.000000          0.000000
  13      X    12   1.000000( 12)  11   90.000( 24)   9    0.000( 35)   0
  14  13  He   12   1.500000( 13)  13   90.000( 25)  11  180.000( 36)   0
 ------------------------------------------------------------------------
                         Z-Matrix orientation:                         
 ---------------------------------------------------------------------
 Center     Atomic     Atomic              Coordinates (Angstroms)
 Number     Number      Type              X           Y           Z
 ---------------------------------------------------------------------
    1          6             0        0.173030   -1.226543    0.000000
    2          1             0       -0.387009   -2.164857    0.000000
    3          6             0        1.580080   -1.217204    0.000000
    4          1             0        2.122475   -2.167243    0.000000
    5          6             0        2.286660    0.000000    0.000000
    6          1             0        3.380093    0.000000    0.000000
    7          6             0        1.580080    1.217204    0.000000
    8          1             0        2.122476    2.167243    0.000000
    9          6             0        0.173029    1.226543    0.000000
   10          1             0       -0.387010    2.164857    0.000000
   11          6             0       -0.512547    0.000000    0.000000
   12         17             0       -2.266648    0.000000    0.000000
   13         -1             0       -2.266648    1.000000    0.000000
   14          2             0       -3.766648    0.000000    0.000000
 ---------------------------------------------------------------------
                    Distance matrix (angstroms):
                    1          2          3          4          5
     1  C    0.000000
     2  H    1.092738   0.000000
     3  C    1.407081   2.183457   0.000000
     4  H    2.164544   2.509485   1.093968   0.000000
     5  C    2.443735   3.440220   1.407423   2.173453   0.000000
     6  H    3.433608   4.344843   2.172932   2.505703   1.093433
     7  C    2.819874   3.912515   2.434408   3.427634   1.407423
     8  H    3.913837   5.006456   3.427634   4.334486   2.173453
     9  C    2.453086   3.437330   2.819874   3.913837   2.443736
    10  H    3.437330   4.329714   3.912516   5.006456   3.440221
    11  C    1.405142   2.168494   2.420883   3.411786   2.799207
    12  Cl   2.730648   2.866993   4.034712   4.895032   4.553308
    13  X    3.302957   3.680946   4.439967   5.412562   4.661825
    14  He   4.126193   4.013548   5.483529   6.275246   6.053308
                    6          7          8          9         10
     6  H    0.000000
     7  C    2.172932   0.000000
     8  H    2.505702   1.093969   0.000000
     9  C    3.433608   1.407082   2.164546   0.000000
    10  H    4.344844   2.183458   2.509487   1.092738   0.000000
    11  C    3.892640   2.420883   3.411787   1.405141   2.168494
    12  Cl   5.646741   4.034712   4.895033   2.730647   2.866992
    13  X    5.734604   3.852855   4.541681   2.450173   2.211319
    14  He   7.146741   5.483529   6.275247   4.126192   4.013547
                   11         12         13         14
    11  C    0.000000
    12  Cl   1.754101   0.000000
    13  X    2.019126   1.000000   0.000000
    14  He   3.254101   1.500000   1.802776   0.000000
                           Interatomic angles:
       H2-C1-C3=121.2114       H2-C1-H4= 95.0716       C1-C3-H4=119.3426
       H2-C3-H4= 94.0002       H2-C1-C5=150.9578       C1-C3-C5=120.5152
       H2-C3-C5=145.8575       C1-H4-C5= 68.5728       H2-H4-C5= 94.2778
       H4-C3-C5=120.1422       C1-C3-H6=146.313        H2-C3-H6=171.6553
       C1-H4-H6= 94.3664       H2-H4-H6=120.0715       H4-C3-H6= 94.3445
       C1-C5-H6=149.8733       C3-C5-H6=120.1349       H4-C5-H6= 94.3323
       H2-C1-C7=179.1011       C1-C3-C7= 90.3803       H2-C3-C7=115.7226
       H4-C1-C7= 85.8272       H4-C3-C7=150.2771       C1-C5-C7= 89.9917
       C3-C5-C7=119.7302       H4-C5-C7=145.5328       C1-C7-H6= 85.865 
       C3-H6-C7= 68.1347       H4-H6-C7= 93.9414       H6-C5-C7=120.1349
       C1-C5-H8=115.7944       C3-C5-H8=145.5328       H4-C5-H8=171.3354
       C3-H6-H8= 93.9414       H4-H6-H8=119.7481       H6-C5-H8= 94.3323
       C1-C7-H8=179.7906       C3-C7-H8=150.2771       C5-C7-H8=120.1422
       H6-C7-H8= 94.3444       H2-C1-C9=149.1688       C3-C1-C9= 89.6197
       H2-C3-C9= 85.7903       H4-C1-C9=115.7595       H4-C3-C9=179.7905
       C1-C5-C9= 60.2533       C3-C5-C9= 89.9917       H4-C5-C9=115.7943
       H6-C3-C9= 85.865        H6-C5-C9=149.8733       C1-C9-C7= 89.6197
       C3-C7-C9= 90.3803       C5-C7-C9=120.5152       H6-C7-C9=146.313 
       C1-C9-H8=115.7595       C3-C9-H8= 85.8272       C5-H8-C9= 68.5728
       H6-H8-C9= 94.3664       H8-C7-C9=119.3426      C1-C7-H10= 85.7903
      C3-C7-H10=115.7226      C5-C7-H10=145.8575      H6-C7-H10=171.6553
      C5-H8-H10= 94.2778      H6-H8-H10=120.0714      H8-C7-H10= 94.0003
      C1-C9-H10=149.1689      C3-C9-H10=179.1012      C5-C9-H10=150.9578
      C7-C9-H10=121.2114      H8-C9-H10= 95.0716      H2-C1-C11=119.9658
      C3-C1-C11=118.8228      C3-H2-C11= 67.5962      H4-C1-C11=144.9626
      H4-H2-C11= 93.3733      H4-C3-C11=149.9078      C5-C1-C11= 89.0764
      H2-C11-C5= 86.6812      C5-C3-C11= 89.9499      H4-C5-C11= 85.6677
      H6-C3-C11=115.7477      H6-C5-C11=180.          C1-C11-C7= 90.982 
      H2-C11-C7=116.8662      C3-C11-C7= 60.37        C5-C7-C11= 89.9499
      H6-C7-C11=115.7477      H8-C5-C11= 85.6677      H8-C7-C11=149.9079
      C1-C11-C9=121.594       H2-C11-C9=147.4782      C3-C11-C9= 90.982 
      C5-C9-C11= 89.0763      C7-C9-C11=118.8227      H8-C9-C11=144.9625
     C1-C11-H10=147.4782     H2-C11-H10=173.3624     C3-C11-H10=116.8662
     C5-C11-H10= 86.6812     C7-H10-C11= 67.5962     H8-H10-C11= 93.3733
     H10-C9-C11=119.9659     H2-C1-Cl12= 85.8597     C3-C1-Cl12=152.9288
     C3-H2-Cl12=105.2435     H4-C1-Cl12=179.0687     H4-H2-Cl12=131.0207
     C5-C1-Cl12=123.1825     C7-C1-Cl12= 93.2414     C1-C9-Cl12= 63.3091
     H2-Cl12-C9= 75.7247     C3-C9-Cl12= 93.2414     C5-C9-Cl12=123.1825
     C7-C9-Cl12=152.9288     H8-C9-Cl12=179.0686    C1-Cl12-H10= 75.7247
    H2-Cl12-H10= 98.0677    C7-H10-Cl12=105.2435    H8-H10-Cl12=131.0206
    H10-C9-Cl12= 85.8597    C1-C11-Cl12=119.203     H2-C11-Cl12= 93.3188
    C3-C11-Cl12=149.815     C5-C11-Cl12=180.        C7-C11-Cl12=149.815 
    C9-C11-Cl12=119.203    H10-C11-Cl12= 93.3188      C1-C9-X13= 84.6949
      C3-C9-X13=114.6272      C5-C9-X13=144.5682      C7-C9-X13=174.3146
      H8-C9-X13=159.5456     C7-H10-X13=122.4899     H8-H10-X13=148.267 
     C9-H10-X13= 89.0437     C1-C11-X13=148.8902     H2-C11-X13=123.006 
     C3-C11-X13=179.5022     C5-C11-X13=150.3129     C7-C11-X13=120.1279
     C9-C11-X13= 89.5159    H10-C11-X13= 63.6316    C1-Cl12-X13=116.6909
    H2-Cl12-X13=139.0338    C9-X13-Cl12= 95.3051   H10-X13-Cl12=121.7875
   C11-Cl12-X13= 90.       C1-Cl12-He14=153.3091   H2-Cl12-He14=130.9662
   C9-Cl12-He14=153.3091  H10-Cl12-He14=130.9662  C11-Cl12-He14=180.    
    C9-X13-He14=151.6151   H10-X13-He14=178.0974   C11-X13-He14=116.6228
  X13-Cl12-He14= 90.    
 Stoichiometry    C6H5ClHe
 Framework group  CS[SG(C6H5ClHe)]
 Deg. of freedom    23
 Full point group                 CS
 Largest Abelian subgroup         CS      NOp   2
 Largest concise Abelian subgroup C1      NOp   1
                         Standard orientation:                         
 ---------------------------------------------------------------------
 Center     Atomic     Atomic              Coordinates (Angstroms)
 Number     Number      Type              X           Y           Z
 ---------------------------------------------------------------------
    1          6             0        1.226543   -0.298585    0.000000
    2          1             0        2.164857    0.261454    0.000000
    3          6             0        1.217204   -1.705635    0.000000
    4          1             0        2.167243   -2.248030    0.000000
    5          6             0        0.000000   -2.412215    0.000000
    6          1             0        0.000000   -3.505648    0.000000
    7          6             0       -1.217204   -1.705635    0.000000
    8          1             0       -2.167243   -2.248031    0.000000
    9          6             0       -1.226543   -0.298584    0.000000
   10          1             0       -2.164857    0.261455    0.000000
   11          6             0        0.000000    0.386992    0.000000
   12         17             0        0.000000    2.141093    0.000000
   13          2             0        0.000000    3.641093    0.000000
 ---------------------------------------------------------------------
 Rotational constants (GHZ):      5.5795026      1.3338559      1.0765032
 Standard basis: 6-31++G(3d,3p) (6D, 7F)
 There are   211 symmetry adapted basis functions of A'  symmetry.
 There are    82 symmetry adapted basis functions of A"  symmetry.
 Integral buffers will be    131072 words long.
 Raffenetti 1 integral format.
 Two-electron integral symmetry is turned on.
   293 basis functions,   416 primitive gaussians,   293 cartesian basis functions
    30 alpha electrons       30 beta electrons
       nuclear repulsion energy       334.3588284629 Hartrees.
 NAtoms=   13 NActive=   13 NUniq=   13 SFac= 7.50D-01 NAtFMM=   80 NAOKFM=F Big=F
 One-electron integrals computed using PRISM.
 NBasis=   293 RedAO= T  NBF=   211    82
 NBsUse=   293 1.00D-06 NBFU=   211    82
 Harris functional with IExCor=  205 diagonalized for initial guess.
 ExpMin= 3.60D-02 ExpMax= 2.52D+04 ExpMxC= 3.78D+03 IAcc=3 IRadAn=         5 AccDes= 0.00D+00
 HarFok:  IExCor= 205 AccDes= 0.00D+00 IRadAn=         5 IDoV=1
 ScaDFX=  1.000000  1.000000  1.000000  1.000000
 Initial guess orbital symmetries:
       Occupied  (A') (A') (A') (A') (A') (A') (A') (A') (A') (A')
                 (A") (A') (A') (A') (A') (A') (A') (A') (A') (A')
                 (A') (A') (A') (A") (A') (A") (A') (A") (A') (A")
       Virtual   (A") (A") (A') (A") (A') (A') (A') (A') (A') (A')
                 (A") (A') (A') (A") (A") (A') (A') (A') (A') (A')
                 (A') (A") (A') (A") (A') (A') (A') (A") (A') (A')
                 (A") (A') (A') (A') (A') (A') (A") (A') (A") (A')
                 (A') (A') (A') (A') (A') (A') (A') (A') (A') (A")
                 (A') (A') (A') (A") (A') (A') (A") (A') (A') (A")
                 (A') (A') (A') (A') (A") (A") (A") (A") (A') (A")
                 (A') (A') (A") (A") (A') (A") (A') (A") (A') (A')
                 (A') (A') (A') (A') (A') (A') (A') (A") (A') (A')
                 (A') (A") (A") (A") (A") (A') (A') (A") (A') (A')
                 (A") (A") (A') (A') (A") (A') (A') (A') (A") (A')
                 (A') (A") (A') (A") (A") (A') (A') (A') (A') (A')
                 (A') (A') (A') (A') (A') (A') (A') (A") (A') (A')
                 (A") (A') (A') (A') (A") (A') (A') (A') (A') (A')
                 (A') (A") (A") (A") (A') (A") (A') (A') (A') (A')
                 (A') (A") (A') (A') (A") (A') (A') (A') (A") (A")
                 (A') (A") (A') (A") (A') (A') (A") (A') (A') (A')
                 (A') (A') (A") (A') (A') (A") (A") (A') (A") (A")
                 (A') (A') (A') (A') (A') (A') (A') (A') (A') (A')
                 (A') (A') (A') (A') (A') (A') (A') (A") (A') (A")
                 (A') (A') (A') (A') (A') (A') (A') (A') (A") (A")
                 (A") (A") (A") (A") (A') (A') (A') (A') (A') (A")
                 (A') (A") (A') (A") (A") (A") (A') (A') (A') (A')
                 (A') (A") (A') (A') (A') (A') (A') (A') (A") (A')
                 (A') (A") (A') (A") (A") (A") (A") (A') (A') (A')
                 (A') (A') (A') (A') (A') (A') (A') (A') (A') (A')
                 (A') (A') (A')
 The electronic state of the initial guess is 1-A'.
 Requested convergence on RMS density matrix=1.00D-08 within 128 cycles.
 Requested convergence on MAX density matrix=1.00D-06.
 Requested convergence on             energy=1.00D-06.
 No special actions if energy rises.
 SCF Done:  E(RHF) =  -692.364241168     A.U. after   14 cycles
             Convg  =    0.5532D-08             -V/T =  2.0005
             S**2   =   0.0000
 ExpMin= 3.60D-02 ExpMax= 2.52D+04 ExpMxC= 3.78D+03 IAcc=3 IRadAn=         5 AccDes= 0.00D+00
 HarFok:  IExCor= 205 AccDes= 0.00D+00 IRadAn=         5 IDoV=1
 ScaDFX=  1.000000  1.000000  1.000000  1.000000
 Range of M.O.s used for correlation:    12   293
 NBasis=   293 NAE=    30 NBE=    30 NFC=    11 NFV=     0
 NROrb=    282 NOA=    19 NOB=    19 NVA=   263 NVB=   263

 **** Warning!!: The largest alpha MO coefficient is  0.23331372D+03

 Semi-Direct transformation.
 ModeAB=           4 MOrb=            19 LenV=      14855655
 LASXX=     16763530 LTotXX=    16763530 LenRXX=    34015055
 LTotAB=    17251525 MaxLAS=   214812936 LenRXY=           0
 NonZer=    50778585 LenScr=    78498816 LnRSAI=   214812936
 LnScr1=   333317632 LExtra=           0 Total=    660644439
 MaxDsk=          -1 SrtSym=           T ITran=            3
 JobTyp=0 Pass  1:  I=   1 to  19.
 Spin components of T(2) and E(2):
     alpha-alpha T2 =       0.5491767873D-01 E2=     -0.1358427859D+00
     alpha-beta  T2 =       0.2819269493D+00 E2=     -0.7766377889D+00
     beta-beta   T2 =       0.5491767873D-01 E2=     -0.1358427859D+00
 ANorm=    0.1179729760D+01
 E2=       -0.1048323361D+01 EUMP2=       -0.69341256452829D+03
 Would need an additional  1851083124 words for in-memory AO integral storage.
 DD1Dir will call FoFDir   3 times, MxPair=       128
 NAB=   190 NAA=     0 NBB=     0 NumPrc=  1.
 Petite list used in FoFDir.
 MinBra= 0 MaxBra= 2 Meth= 1.
 IRaf=       0 NMat= 128 IRICut=     128 DoRegI=T DoRafI=T ISym2E=-1 JSym2E=1.
 E3=       -0.34995621D-01        EUMP3=      -0.69344756015D+03
 Largest amplitude= 5.15D-02

 **********************************************************************

            Population analysis using the SCF density.

 **********************************************************************

 Orbital symmetries:
       Occupied  (A') (A') (A') (A') (A') (A') (A') (A') (A') (A")
                 (A') (A') (A') (A') (A') (A') (A') (A') (A') (A')
                 (A') (A') (A') (A") (A') (A') (A") (A') (A") (A")
       Virtual   (A') (A') (A') (A') (A') (A') (A") (A") (A') (A")
                 (A') (A") (A") (A') (A') (A') (A') (A") (A') (A')
                 (A') (A') (A") (A") (A') (A") (A') (A') (A') (A')
                 (A') (A') (A') (A') (A') (A') (A") (A') (A') (A')
                 (A') (A') (A") (A") (A') (A') (A') (A') (A') (A")
                 (A') (A') (A') (A') (A") (A') (A') (A') (A") (A")
                 (A') (A') (A') (A') (A") (A') (A") (A") (A') (A')
                 (A") (A') (A') (A") (A") (A") (A") (A") (A') (A')
                 (A') (A') (A') (A') (A') (A") (A') (A') (A') (A')
                 (A") (A") (A') (A") (A') (A") (A') (A') (A') (A")
                 (A') (A') (A") (A") (A') (A') (A") (A') (A") (A")
                 (A') (A') (A') (A') (A') (A") (A') (A") (A') (A')
                 (A') (A') (A') (A') (A') (A') (A") (A') (A') (A')
                 (A') (A") (A') (A') (A') (A") (A') (A') (A') (A')
                 (A') (A") (A") (A") (A') (A") (A') (A') (A') (A')
                 (A') (A') (A') (A") (A") (A') (A') (A') (A") (A')
                 (A") (A") (A') (A") (A') (A') (A') (A') (A') (A")
                 (A') (A') (A") (A') (A") (A') (A") (A") (A') (A")
                 (A') (A') (A') (A') (A') (A') (A') (A') (A') (A')
                 (A') (A') (A') (A') (A') (A') (A') (A") (A") (A')
                 (A') (A') (A') (A') (A') (A') (A') (A') (A") (A")
                 (A") (A") (A") (A") (A') (A') (A') (A') (A') (A")
                 (A") (A') (A") (A') (A") (A") (A') (A') (A') (A')
                 (A') (A") (A') (A') (A') (A') (A') (A') (A") (A')
                 (A') (A") (A') (A") (A") (A") (A") (A') (A') (A')
                 (A') (A') (A') (A') (A') (A') (A') (A') (A') (A')
                 (A') (A') (A')
 The electronic state is 1-A'.
 Alpha  occ. eigenvalues -- -104.83656 -11.28049 -11.25135 -11.25123 -11.24891
 Alpha  occ. eigenvalues --  -11.24891 -11.24692 -10.56700  -8.03714  -8.03063
 Alpha  occ. eigenvalues --   -8.03055  -1.21070  -1.14742  -1.04444  -1.01935
 Alpha  occ. eigenvalues --   -0.94533  -0.83377  -0.79850  -0.69353  -0.63281
 Alpha  occ. eigenvalues --   -0.63269  -0.59291  -0.55563  -0.53249  -0.50873
 Alpha  occ. eigenvalues --   -0.47387  -0.46877  -0.46281  -0.34070  -0.32771
 Alpha virt. eigenvalues --    0.04120   0.05008   0.05451   0.07017   0.07324
 Alpha virt. eigenvalues --    0.09700   0.09902   0.10059   0.12545   0.13170
 Alpha virt. eigenvalues --    0.13995   0.15490   0.15586   0.17595   0.18528
 Alpha virt. eigenvalues --    0.18596   0.19387   0.19389   0.19782   0.20727
 Alpha virt. eigenvalues --    0.21061   0.21528   0.21613   0.22020   0.22350
 Alpha virt. eigenvalues --    0.23084   0.24015   0.24054   0.26668   0.28073
 Alpha virt. eigenvalues --    0.28204   0.29209   0.29430   0.31399   0.32648
 Alpha virt. eigenvalues --    0.34583   0.35292   0.36717   0.38944   0.40917
 Alpha virt. eigenvalues --    0.42064   0.42131   0.43821   0.44041   0.45208
 Alpha virt. eigenvalues --    0.46903   0.48374   0.49870   0.50666   0.54779
 Alpha virt. eigenvalues --    0.54880   0.56236   0.59267   0.63484   0.63630
 Alpha virt. eigenvalues --    0.63839   0.64732   0.66145   0.67884   0.68093
 Alpha virt. eigenvalues --    0.68261   0.69240   0.73538   0.75887   0.76517
 Alpha virt. eigenvalues --    0.77945   0.79160   0.81578   0.82268   0.83695
 Alpha virt. eigenvalues --    0.85476   0.86450   0.86656   0.87266   0.87477
 Alpha virt. eigenvalues --    0.88753   0.89008   0.89675   0.89941   0.90238
 Alpha virt. eigenvalues --    0.92982   0.93766   0.94533   0.95605   0.95994
 Alpha virt. eigenvalues --    0.97111   0.98649   1.00302   1.02843   1.04788
 Alpha virt. eigenvalues --    1.06498   1.06738   1.08470   1.09233   1.12056
 Alpha virt. eigenvalues --    1.12655   1.13206   1.14878   1.14916   1.22346
 Alpha virt. eigenvalues --    1.23059   1.24493   1.25609   1.26494   1.27319
 Alpha virt. eigenvalues --    1.28003   1.29215   1.32570   1.35088   1.38535
 Alpha virt. eigenvalues --    1.39547   1.40387   1.45636   1.45903   1.46830
 Alpha virt. eigenvalues --    1.47855   1.47983   1.48058   1.49112   1.52357
 Alpha virt. eigenvalues --    1.53290   1.58230   1.63294   1.69093   1.70692
 Alpha virt. eigenvalues --    1.73126   1.76380   1.83304   1.84043   1.85888
 Alpha virt. eigenvalues --    1.89219   1.96576   1.99062   2.02942   2.10046
 Alpha virt. eigenvalues --    2.11870   2.16193   2.19336   2.19591   2.20531
 Alpha virt. eigenvalues --    2.22953   2.23326   2.23624   2.24433   2.29705
 Alpha virt. eigenvalues --    2.34348   2.34941   2.42179   2.42622   2.43832
 Alpha virt. eigenvalues --    2.49628   2.52741   2.52998   2.54819   2.59214
 Alpha virt. eigenvalues --    2.62325   2.64663   2.69637   2.74537   2.81529
 Alpha virt. eigenvalues --    2.81885   2.85003   2.85828   2.86720   2.89886
 Alpha virt. eigenvalues --    2.94319   3.10743   3.11035   3.13299   3.14169
 Alpha virt. eigenvalues --    3.15907   3.18857   3.19787   3.22102   3.24637
 Alpha virt. eigenvalues --    3.24825   3.28401   3.31103   3.32235   3.36497
 Alpha virt. eigenvalues --    3.45252   3.45563   3.52733   3.54129   3.62483
 Alpha virt. eigenvalues --    3.62723   3.76733   3.86379   3.91239   3.94043
 Alpha virt. eigenvalues --    3.97676   3.99757   4.12260   4.19082   4.26362
 Alpha virt. eigenvalues --    4.54723   5.08949   5.66987   5.72424   5.73228
 Alpha virt. eigenvalues --    5.84810   6.05139   6.28042   6.62314   6.87235
 Alpha virt. eigenvalues --    7.21772   7.40760   8.02410   9.48644   9.54722
 Alpha virt. eigenvalues --    9.58919   9.59228   9.63461   9.64799   9.67256
 Alpha virt. eigenvalues --    9.67677   9.78505   9.80092   9.80398   9.80512
 Alpha virt. eigenvalues --    9.80631   9.81498   9.86830   9.86937   9.87338
 Alpha virt. eigenvalues --    9.95102   9.96846   9.98860  10.00502  10.01187
 Alpha virt. eigenvalues --   10.04844  10.08190  10.15580  10.29921  10.34352
 Alpha virt. eigenvalues --   10.37189  10.39413  10.82900  11.97867  12.00436
 Alpha virt. eigenvalues --   12.26600  12.85255  12.86725  12.86921  12.88355
 Alpha virt. eigenvalues --   12.89110  12.90736  12.91631  12.97854  13.03027
 Alpha virt. eigenvalues --   13.10754  13.25532  13.29543  13.39207  13.45409
 Alpha virt. eigenvalues --   13.47455  13.49575  13.52436  13.52981  13.58750
 Alpha virt. eigenvalues --   13.72897  13.93194  14.53006
          Condensed to atoms (all electrons):
              1          2          3          4          5          6
     1  C    7.113786   0.547696  -0.784165   0.026406   0.484676   0.033949
     2  H    0.547696   0.372829  -0.108638   0.005078   0.033400   0.002254
     3  C   -0.784165  -0.108638   6.894607   0.369629  -0.487151  -0.073014
     4  H    0.026406   0.005078   0.369629   0.359483   0.002533   0.005089
     5  C    0.484676   0.033400  -0.487151   0.002533   6.214495   0.467615
     6  H    0.033949   0.002254  -0.073014   0.005089   0.467615   0.370279
     7  C   -0.798105  -0.039542   0.876938  -0.022166  -0.487149  -0.073014
     8  H    0.015633   0.000293  -0.022167   0.000249   0.002533   0.005089
     9  C    0.111993   0.033125  -0.798107   0.015633   0.484677   0.033949
    10  H    0.033125   0.002841  -0.039542   0.000293   0.033400   0.002254
    11  C   -1.042413  -0.116113   0.905996  -0.013167  -0.660906  -0.020242
    12  Cl   0.222624   0.021851  -0.158737  -0.001345   0.113341   0.002979
    13  He   0.009151   0.004283  -0.007454   0.000040   0.001404   0.000006
              7          8          9         10         11         12
     1  C   -0.798105   0.015633   0.111993   0.033125  -1.042413   0.222624
     2  H   -0.039542   0.000293   0.033125   0.002841  -0.116113   0.021851
     3  C    0.876938  -0.022167  -0.798107  -0.039542   0.905996  -0.158737
     4  H   -0.022166   0.000249   0.015633   0.000293  -0.013167  -0.001345
     5  C   -0.487149   0.002533   0.484677   0.033400  -0.660906   0.113341
     6  H   -0.073014   0.005089   0.033949   0.002254  -0.020242   0.002979
     7  C    6.894601   0.369628  -0.784163  -0.108638   0.905995  -0.158737
     8  H    0.369628   0.359483   0.026406   0.005078  -0.013167  -0.001345
     9  C   -0.784163   0.026406   7.113787   0.547696  -1.042415   0.222625
    10  H   -0.108638   0.005078   0.547696   0.372829  -0.116113   0.021851
    11  C    0.905995  -0.013167  -1.042415  -0.116113   8.581835  -0.980115
    12  Cl  -0.158737  -0.001345   0.222625   0.021851  -0.980115  17.890393
    13  He  -0.007454   0.000040   0.009151   0.004283  -0.022829  -0.782806
             13
     1  C    0.009151
     2  H    0.004283
     3  C   -0.007454
     4  H    0.000040
     5  C    0.001404
     6  H    0.000006
     7  C   -0.007454
     8  H    0.000040
     9  C    0.009151
    10  H    0.004283
    11  C   -0.022829
    12  Cl  -0.782806
    13  He   2.953878
 Mulliken atomic charges:
              1
     1  C    0.025644
     2  H    0.240644
     3  C   -0.568196
     4  H    0.252245
     5  C   -0.202868
     6  H    0.242807
     7  C   -0.568195
     8  H    0.252245
     9  C    0.025644
    10  H    0.240644
    11  C   -0.366344
    12  Cl   0.587422
    13  He  -0.161692
 Sum of Mulliken charges=   0.00000
 Atomic charges with hydrogens summed into heavy atoms:
              1
     1  C    0.266287
     2  H    0.000000
     3  C   -0.315950
     4  H    0.000000
     5  C    0.039939
     6  H    0.000000
     7  C   -0.315949
     8  H    0.000000
     9  C    0.266288
    10  H    0.000000
    11  C   -0.366344
    12  Cl   0.587422
    13  He  -0.161692
 Sum of Mulliken charges=   0.00000
 Electronic spatial extent (au):  <R**2>=  1009.9295
 Charge=     0.0000 electrons
 Dipole moment (field-independent basis, Debye):
    X=     0.0000    Y=    -0.4551    Z=     0.0000  Tot=     0.4551
 Quadrupole moment (field-independent basis, Debye-Ang):
   XX=   -44.2446   YY=   -43.0814   ZZ=   -54.0670
   XY=     0.0000   XZ=     0.0000   YZ=     0.0000
 Traceless Quadrupole moment (field-independent basis, Debye-Ang):
   XX=     2.8864   YY=     4.0496   ZZ=    -6.9360
   XY=     0.0000   XZ=     0.0000   YZ=     0.0000
 Octapole moment (field-independent basis, Debye-Ang**2):
  XXX=     0.0000  YYY=    20.8911  ZZZ=     0.0000  XYY=     0.0000
  XXY=     1.4525  XXZ=     0.0000  XZZ=     0.0000  YZZ=    11.5141
  YYZ=     0.0000  XYZ=     0.0000
 Hexadecapole moment (field-independent basis, Debye-Ang**3):
 XXXX=  -287.6147 YYYY=  -831.5772 ZZZZ=   -66.5186 XXXY=     0.0000
 XXXZ=     0.0000 YYYX=     0.0000 YYYZ=     0.0000 ZZZX=     0.0000
 ZZZY=     0.0000 XXYY=  -199.8980 XXZZ=   -72.1665 YYZZ=  -185.3098
 XXYZ=     0.0000 YYXZ=     0.0000 ZZXY=     0.0000
 N-N= 3.343588284629D+02 E-N=-2.304928174575D+03  KE= 6.919857513021D+02
 Symmetry A'   KE= 6.403634767847D+02
 Symmetry A"   KE= 5.162227451744D+01
 Variable Step   Value    
 -------- ---- -----------
     1       1    3.023562
 ------------------------------------------------------------------------
                         Z-MATRIX (ANGSTROMS AND DEGREES)
 CD Cent Atom  N1     Length/X     N2    Alpha/Y     N3     Beta/Z      J
 ------------------------------------------------------------------------
   1   1  C     0   0.173030         -1.226543          0.000000
   2   2  H     0  -0.387009         -2.164857          0.000000
   3   3  C     0   1.580080         -1.217204          0.000000
   4   4  H     0   2.122475         -2.167243          0.000000
   5   5  C     0   2.286660          0.000000          0.000000
   6   6  H     0   3.380093          0.000000          0.000000
   7   7  C     0   1.580080          1.217204          0.000000
   8   8  H     0   2.122476          2.167243          0.000000
   9   9  C     0   0.173029          1.226543          0.000000
  10  10  H     0  -0.387010          2.164857          0.000000
  11  11  C     0  -0.512547          0.000000          0.000000
  12  12  Cl    0  -2.266648          0.000000          0.000000
  13      X    12   1.000000( 12)  11   90.000( 24)   9    0.000( 35)   0
  14  13  He   12   1.600000( 13)  13   90.000( 25)  11  180.000( 36)   0
 ------------------------------------------------------------------------
                         Z-Matrix orientation:                         
 ---------------------------------------------------------------------
 Center     Atomic     Atomic              Coordinates (Angstroms)
 Number     Number      Type              X           Y           Z
 ---------------------------------------------------------------------
    1          6             0        0.173030   -1.226543    0.000000
    2          1             0       -0.387009   -2.164857    0.000000
    3          6             0        1.580080   -1.217204    0.000000
    4          1             0        2.122475   -2.167243    0.000000
    5          6             0        2.286660    0.000000    0.000000
    6          1             0        3.380093    0.000000    0.000000
    7          6             0        1.580080    1.217204    0.000000
    8          1             0        2.122476    2.167243    0.000000
    9          6             0        0.173029    1.226543    0.000000
   10          1             0       -0.387010    2.164857    0.000000
   11          6             0       -0.512547    0.000000    0.000000
   12         17             0       -2.266648    0.000000    0.000000
   13         -1             0       -2.266648    1.000000    0.000000
   14          2             0       -3.866648    0.000000    0.000000
 ---------------------------------------------------------------------
                    Distance matrix (angstroms):
                    1          2          3          4          5
     1  C    0.000000
     2  H    1.092738   0.000000
     3  C    1.407081   2.183457   0.000000
     4  H    2.164544   2.509485   1.093968   0.000000
     5  C    2.443735   3.440220   1.407423   2.173453   0.000000
     6  H    3.433608   4.344843   2.172932   2.505703   1.093433
     7  C    2.819874   3.912515   2.434408   3.427634   1.407423
     8  H    3.913837   5.006456   3.427634   4.334486   2.173453
     9  C    2.453086   3.437330   2.819874   3.913837   2.443736
    10  H    3.437330   4.329714   3.912516   5.006456   3.440221
    11  C    1.405142   2.168494   2.420883   3.411786   2.799207
    12  Cl   2.730648   2.866993   4.034712   4.895032   4.553308
    13  X    3.302957   3.680946   4.439967   5.412562   4.661825
    14  He   4.221778   4.098109   5.581078   6.369186   6.153308
                    6          7          8          9         10
     6  H    0.000000
     7  C    2.172932   0.000000
     8  H    2.505702   1.093969   0.000000
     9  C    3.433608   1.407082   2.164546   0.000000
    10  H    4.344844   2.183458   2.509487   1.092738   0.000000
    11  C    3.892640   2.420883   3.411787   1.405141   2.168494
    12  Cl   5.646741   4.034712   4.895033   2.730647   2.866992
    13  X    5.734604   3.852855   4.541681   2.450173   2.211319
    14  He   7.246741   5.581078   6.369187   4.221777   4.098108
                   11         12         13         14
    11  C    0.000000
    12  Cl   1.754101   0.000000
    13  X    2.019126   1.000000   0.000000
    14  He   3.354101   1.600000   1.886796   0.000000
                           Interatomic angles:
       H2-C1-C3=121.2114       H2-C1-H4= 95.0716       C1-C3-H4=119.3426
       H2-C3-H4= 94.0002       H2-C1-C5=150.9578       C1-C3-C5=120.5152
       H2-C3-C5=145.8575       C1-H4-C5= 68.5728       H2-H4-C5= 94.2778
       H4-C3-C5=120.1422       C1-C3-H6=146.313        H2-C3-H6=171.6553
       C1-H4-H6= 94.3664       H2-H4-H6=120.0715       H4-C3-H6= 94.3445
       C1-C5-H6=149.8733       C3-C5-H6=120.1349       H4-C5-H6= 94.3323
       H2-C1-C7=179.1011       C1-C3-C7= 90.3803       H2-C3-C7=115.7226
       H4-C1-C7= 85.8272       H4-C3-C7=150.2771       C1-C5-C7= 89.9917
       C3-C5-C7=119.7302       H4-C5-C7=145.5328       C1-C7-H6= 85.865 
       C3-H6-C7= 68.1347       H4-H6-C7= 93.9414       H6-C5-C7=120.1349
       C1-C5-H8=115.7944       C3-C5-H8=145.5328       H4-C5-H8=171.3354
       C3-H6-H8= 93.9414       H4-H6-H8=119.7481       H6-C5-H8= 94.3323
       C1-C7-H8=179.7906       C3-C7-H8=150.2771       C5-C7-H8=120.1422
       H6-C7-H8= 94.3444       H2-C1-C9=149.1688       C3-C1-C9= 89.6197
       H2-C3-C9= 85.7903       H4-C1-C9=115.7595       H4-C3-C9=179.7905
       C1-C5-C9= 60.2533       C3-C5-C9= 89.9917       H4-C5-C9=115.7943
       H6-C3-C9= 85.865        H6-C5-C9=149.8733       C1-C9-C7= 89.6197
       C3-C7-C9= 90.3803       C5-C7-C9=120.5152       H6-C7-C9=146.313 
       C1-C9-H8=115.7595       C3-C9-H8= 85.8272       C5-H8-C9= 68.5728
       H6-H8-C9= 94.3664       H8-C7-C9=119.3426      C1-C7-H10= 85.7903
      C3-C7-H10=115.7226      C5-C7-H10=145.8575      H6-C7-H10=171.6553
      C5-H8-H10= 94.2778      H6-H8-H10=120.0714      H8-C7-H10= 94.0003
      C1-C9-H10=149.1689      C3-C9-H10=179.1012      C5-C9-H10=150.9578
      C7-C9-H10=121.2114      H8-C9-H10= 95.0716      H2-C1-C11=119.9658
      C3-C1-C11=118.8228      C3-H2-C11= 67.5962      H4-C1-C11=144.9626
      H4-H2-C11= 93.3733      H4-C3-C11=149.9078      C5-C1-C11= 89.0764
      H2-C11-C5= 86.6812      C5-C3-C11= 89.9499      H4-C5-C11= 85.6677
      H6-C3-C11=115.7477      H6-C5-C11=180.          C1-C11-C7= 90.982 
      H2-C11-C7=116.8662      C3-C11-C7= 60.37        C5-C7-C11= 89.9499
      H6-C7-C11=115.7477      H8-C5-C11= 85.6677      H8-C7-C11=149.9079
      C1-C11-C9=121.594       H2-C11-C9=147.4782      C3-C11-C9= 90.982 
      C5-C9-C11= 89.0763      C7-C9-C11=118.8227      H8-C9-C11=144.9625
     C1-C11-H10=147.4782     H2-C11-H10=173.3624     C3-C11-H10=116.8662
     C5-C11-H10= 86.6812     C7-H10-C11= 67.5962     H8-H10-C11= 93.3733
     H10-C9-C11=119.9659     H2-C1-Cl12= 85.8597     C3-C1-Cl12=152.9288
     C3-H2-Cl12=105.2435     H4-C1-Cl12=179.0687     H4-H2-Cl12=131.0207
     C5-C1-Cl12=123.1825     C7-C1-Cl12= 93.2414     C1-C9-Cl12= 63.3091
     H2-Cl12-C9= 75.7247     C3-C9-Cl12= 93.2414     C5-C9-Cl12=123.1825
     C7-C9-Cl12=152.9288     H8-C9-Cl12=179.0686    C1-Cl12-H10= 75.7247
    H2-Cl12-H10= 98.0677    C7-H10-Cl12=105.2435    H8-H10-Cl12=131.0206
    H10-C9-Cl12= 85.8597    C1-C11-Cl12=119.203     H2-C11-Cl12= 93.3188
    C3-C11-Cl12=149.815     C5-C11-Cl12=180.        C7-C11-Cl12=149.815 
    C9-C11-Cl12=119.203    H10-C11-Cl12= 93.3188      C1-C9-X13= 84.6949
      C3-C9-X13=114.6272      C5-C9-X13=144.5682      C7-C9-X13=174.3146
      H8-C9-X13=159.5456     C7-H10-X13=122.4899     H8-H10-X13=148.267 
     C9-H10-X13= 89.0437     C1-C11-X13=148.8902     H2-C11-X13=123.006 
     C3-C11-X13=179.5022     C5-C11-X13=150.3129     C7-C11-X13=120.1279
     C9-C11-X13= 89.5159    H10-C11-X13= 63.6316    C1-Cl12-X13=116.6909
    H2-Cl12-X13=139.0338    C9-X13-Cl12= 95.3051   H10-X13-Cl12=121.7875
   C11-Cl12-X13= 90.       C1-Cl12-He14=153.3091   H2-Cl12-He14=130.9662
   C9-Cl12-He14=153.3091  H10-Cl12-He14=130.9662  C11-Cl12-He14=180.    
    C9-X13-He14=153.2998   H10-X13-He14=179.7821   C11-X13-He14=118.3075
  X13-Cl12-He14= 90.    
 Stoichiometry    C6H5ClHe
 Framework group  CS[SG(C6H5ClHe)]
 Deg. of freedom    23
 Full point group                 CS
 Largest Abelian subgroup         CS      NOp   2
 Largest concise Abelian subgroup C1      NOp   1
                         Standard orientation:                         
 ---------------------------------------------------------------------
 Center     Atomic     Atomic              Coordinates (Angstroms)
 Number     Number      Type              X           Y           Z
 ---------------------------------------------------------------------
    1          6             0        1.226543   -0.301918    0.000000
    2          1             0        2.164857    0.258121    0.000000
    3          6             0        1.217204   -1.708968    0.000000
    4          1             0        2.167243   -2.251363    0.000000
    5          6             0        0.000000   -2.415548    0.000000
    6          1             0        0.000000   -3.508981    0.000000
    7          6             0       -1.217204   -1.708968    0.000000
    8          1             0       -2.167243   -2.251364    0.000000
    9          6             0       -1.226543   -0.301917    0.000000
   10          1             0       -2.164857    0.258122    0.000000
   11          6             0        0.000000    0.383659    0.000000
   12         17             0        0.000000    2.137760    0.000000
   13          2             0        0.000000    3.737760    0.000000
 ---------------------------------------------------------------------
 Rotational constants (GHZ):      5.5795026      1.3237662      1.0699217
 Standard basis: 6-31++G(3d,3p) (6D, 7F)
 There are   211 symmetry adapted basis functions of A'  symmetry.
 There are    82 symmetry adapted basis functions of A"  symmetry.
 Integral buffers will be    131072 words long.
 Raffenetti 1 integral format.
 Two-electron integral symmetry is turned on.
   293 basis functions,   416 primitive gaussians,   293 cartesian basis functions
    30 alpha electrons       30 beta electrons
       nuclear repulsion energy       333.4058622889 Hartrees.
 NAtoms=   13 NActive=   13 NUniq=   13 SFac= 7.50D-01 NAtFMM=   80 NAOKFM=F Big=F
 One-electron integrals computed using PRISM.
 NBasis=   293 RedAO= T  NBF=   211    82
 NBsUse=   293 1.00D-06 NBFU=   211    82
 Initial guess read from the read-write file:
 Initial guess orbital symmetries:
       Occupied  (A') (A') (A') (A') (A') (A') (A') (A') (A') (A")
                 (A') (A') (A') (A') (A') (A') (A') (A') (A') (A')
                 (A') (A') (A') (A") (A') (A') (A") (A') (A") (A")
       Virtual   (A') (A') (A') (A') (A') (A') (A") (A") (A') (A")
                 (A') (A") (A") (A') (A') (A') (A') (A") (A') (A')
                 (A') (A') (A") (A") (A') (A") (A') (A') (A') (A')
                 (A') (A') (A') (A') (A') (A') (A") (A') (A') (A')
                 (A') (A') (A") (A") (A') (A') (A') (A') (A') (A")
                 (A') (A') (A') (A') (A") (A') (A') (A') (A") (A")
                 (A') (A') (A') (A') (A") (A') (A") (A") (A') (A')
                 (A") (A') (A') (A") (A") (A") (A") (A") (A') (A')
                 (A') (A') (A') (A') (A') (A") (A') (A') (A') (A')
                 (A") (A") (A') (A") (A') (A") (A') (A') (A') (A")
                 (A') (A') (A") (A") (A') (A') (A") (A') (A") (A")
                 (A') (A') (A') (A') (A') (A") (A') (A") (A') (A')
                 (A') (A') (A') (A') (A') (A') (A") (A') (A') (A')
                 (A') (A") (A') (A') (A') (A") (A') (A') (A') (A')
                 (A') (A") (A") (A") (A') (A") (A') (A') (A') (A')
                 (A') (A') (A') (A") (A") (A') (A') (A') (A") (A')
                 (A") (A") (A') (A") (A') (A') (A') (A') (A') (A")
                 (A') (A') (A") (A') (A") (A') (A") (A") (A') (A")
                 (A') (A') (A') (A') (A') (A') (A') (A') (A') (A')
                 (A') (A') (A') (A') (A') (A') (A') (A") (A") (A')
                 (A') (A') (A') (A') (A') (A') (A') (A') (A") (A")
                 (A") (A") (A") (A") (A') (A') (A') (A') (A') (A")
                 (A") (A') (A") (A') (A") (A") (A') (A') (A') (A')
                 (A') (A") (A') (A') (A') (A') (A') (A') (A") (A')
                 (A') (A") (A') (A") (A") (A") (A") (A') (A') (A')
                 (A') (A') (A') (A') (A') (A') (A') (A') (A') (A')
                 (A') (A') (A')
 Harris functional with IExCor=  205 diagonalized for initial guess.
 ExpMin= 3.60D-02 ExpMax= 2.52D+04 ExpMxC= 3.78D+03 IAcc=3 IRadAn=         5 AccDes= 0.00D+00
 HarFok:  IExCor= 205 AccDes= 0.00D+00 IRadAn=         5 IDoV=1
 ScaDFX=  1.000000  1.000000  1.000000  1.000000
 Requested convergence on RMS density matrix=1.00D-08 within 128 cycles.
 Requested convergence on MAX density matrix=1.00D-06.
 Requested convergence on             energy=1.00D-06.
 No special actions if energy rises.
 SCF Done:  E(RHF) =  -692.397127414     A.U. after   13 cycles
             Convg  =    0.1528D-08             -V/T =  2.0007
             S**2   =   0.0000
 ExpMin= 3.60D-02 ExpMax= 2.52D+04 ExpMxC= 3.78D+03 IAcc=3 IRadAn=         5 AccDes= 0.00D+00
 HarFok:  IExCor= 205 AccDes= 0.00D+00 IRadAn=         5 IDoV=1
 ScaDFX=  1.000000  1.000000  1.000000  1.000000
 Range of M.O.s used for correlation:    12   293
 NBasis=   293 NAE=    30 NBE=    30 NFC=    11 NFV=     0
 NROrb=    282 NOA=    19 NOB=    19 NVA=   263 NVB=   263

 **** Warning!!: The largest alpha MO coefficient is  0.24028701D+03

 Semi-Direct transformation.
 ModeAB=           4 MOrb=            19 LenV=      14855998
 LASXX=     16763530 LTotXX=    16763530 LenRXX=    34015055
 LTotAB=    17251525 MaxLAS=   214593258 LenRXY=           0
 NonZer=    50778585 LenScr=    78498816 LnRSAI=   214593258
 LnScr1=   332928000 LExtra=           0 Total=    660035129
 MaxDsk=          -1 SrtSym=           T ITran=            3
 JobTyp=0 Pass  1:  I=   1 to  19.
 Spin components of T(2) and E(2):
     alpha-alpha T2 =       0.5488767445D-01 E2=     -0.1355865717D+00
     alpha-beta  T2 =       0.2820801090D+00 E2=     -0.7763217304D+00
     beta-beta   T2 =       0.5488767445D-01 E2=     -0.1355865717D+00
 ANorm=    0.1179769239D+01
 E2=       -0.1047494874D+01 EUMP2=       -0.69344462228752D+03
 Would need an additional  1851083124 words for in-memory AO integral storage.
 DD1Dir will call FoFDir   3 times, MxPair=       128
 NAB=   190 NAA=     0 NBB=     0 NumPrc=  1.
 Petite list used in FoFDir.
 MinBra= 0 MaxBra= 2 Meth= 1.
 IRaf=       0 NMat= 128 IRICut=     128 DoRegI=T DoRafI=T ISym2E=-1 JSym2E=1.
 E3=       -0.35280180D-01        EUMP3=      -0.69347990247D+03
 Largest amplitude= 5.19D-02
 Variable Step   Value    
 -------- ---- -----------
     1       2    3.212534
 ------------------------------------------------------------------------
                         Z-MATRIX (ANGSTROMS AND DEGREES)
 CD Cent Atom  N1     Length/X     N2    Alpha/Y     N3     Beta/Z      J
 ------------------------------------------------------------------------
   1   1  C     0   0.173030         -1.226543          0.000000
   2   2  H     0  -0.387009         -2.164857          0.000000
   3   3  C     0   1.580080         -1.217204          0.000000
   4   4  H     0   2.122475         -2.167243          0.000000
   5   5  C     0   2.286660          0.000000          0.000000
   6   6  H     0   3.380093          0.000000          0.000000
   7   7  C     0   1.580080          1.217204          0.000000
   8   8  H     0   2.122476          2.167243          0.000000
   9   9  C     0   0.173029          1.226543          0.000000
  10  10  H     0  -0.387010          2.164857          0.000000
  11  11  C     0  -0.512547          0.000000          0.000000
  12  12  Cl    0  -2.266648          0.000000          0.000000
  13      X    12   1.000000( 12)  11   90.000( 24)   9    0.000( 35)   0
  14  13  He   12   1.700000( 13)  13   90.000( 25)  11  180.000( 36)   0
 ------------------------------------------------------------------------
                         Z-Matrix orientation:                         
 ---------------------------------------------------------------------
 Center     Atomic     Atomic              Coordinates (Angstroms)
 Number     Number      Type              X           Y           Z
 ---------------------------------------------------------------------
    1          6             0        0.173030   -1.226543    0.000000
    2          1             0       -0.387009   -2.164857    0.000000
    3          6             0        1.580080   -1.217204    0.000000
    4          1             0        2.122475   -2.167243    0.000000
    5          6             0        2.286660    0.000000    0.000000
    6          1             0        3.380093    0.000000    0.000000
    7          6             0        1.580080    1.217204    0.000000
    8          1             0        2.122476    2.167243    0.000000
    9          6             0        0.173029    1.226543    0.000000
   10          1             0       -0.387010    2.164857    0.000000
   11          6             0       -0.512547    0.000000    0.000000
   12         17             0       -2.266648    0.000000    0.000000
   13         -1             0       -2.266648    1.000000    0.000000
   14          2             0       -3.966648    0.000000    0.000000
 ---------------------------------------------------------------------
                    Distance matrix (angstroms):
                    1          2          3          4          5
     1  C    0.000000
     2  H    1.092738   0.000000
     3  C    1.407081   2.183457   0.000000
     4  H    2.164544   2.509485   1.093968   0.000000
     5  C    2.443735   3.440220   1.407423   2.173453   0.000000
     6  H    3.433608   4.344843   2.172932   2.505703   1.093433
     7  C    2.819874   3.912515   2.434408   3.427634   1.407423
     8  H    3.913837   5.006456   3.427634   4.334486   2.173453
     9  C    2.453086   3.437330   2.819874   3.913837   2.443736
    10  H    3.437330   4.329714   3.912516   5.006456   3.440221
    11  C    1.405142   2.168494   2.420883   3.411786   2.799207
    12  Cl   2.730648   2.866993   4.034712   4.895032   4.553308
    13  X    3.302957   3.680946   4.439967   5.412562   4.661825
    14  He   4.317562   4.183350   5.678713   6.463309   6.253308
                    6          7          8          9         10
     6  H    0.000000
     7  C    2.172932   0.000000
     8  H    2.505702   1.093969   0.000000
     9  C    3.433608   1.407082   2.164546   0.000000
    10  H    4.344844   2.183458   2.509487   1.092738   0.000000
    11  C    3.892640   2.420883   3.411787   1.405141   2.168494
    12  Cl   5.646741   4.034712   4.895033   2.730647   2.866992
    13  X    5.734604   3.852855   4.541681   2.450173   2.211319
    14  He   7.346741   5.678713   6.463310   4.317561   4.183350
                   11         12         13         14
    11  C    0.000000
    12  Cl   1.754101   0.000000
    13  X    2.019126   1.000000   0.000000
    14  He   3.454101   1.700000   1.972308   0.000000
                           Interatomic angles:
       H2-C1-C3=121.2114       H2-C1-H4= 95.0716       C1-C3-H4=119.3426
       H2-C3-H4= 94.0002       H2-C1-C5=150.9578       C1-C3-C5=120.5152
       H2-C3-C5=145.8575       C1-H4-C5= 68.5728       H2-H4-C5= 94.2778
       H4-C3-C5=120.1422       C1-C3-H6=146.313        H2-C3-H6=171.6553
       C1-H4-H6= 94.3664       H2-H4-H6=120.0715       H4-C3-H6= 94.3445
       C1-C5-H6=149.8733       C3-C5-H6=120.1349       H4-C5-H6= 94.3323
       H2-C1-C7=179.1011       C1-C3-C7= 90.3803       H2-C3-C7=115.7226
       H4-C1-C7= 85.8272       H4-C3-C7=150.2771       C1-C5-C7= 89.9917
       C3-C5-C7=119.7302       H4-C5-C7=145.5328       C1-C7-H6= 85.865 
       C3-H6-C7= 68.1347       H4-H6-C7= 93.9414       H6-C5-C7=120.1349
       C1-C5-H8=115.7944       C3-C5-H8=145.5328       H4-C5-H8=171.3354
       C3-H6-H8= 93.9414       H4-H6-H8=119.7481       H6-C5-H8= 94.3323
       C1-C7-H8=179.7906       C3-C7-H8=150.2771       C5-C7-H8=120.1422
       H6-C7-H8= 94.3444       H2-C1-C9=149.1688       C3-C1-C9= 89.6197
       H2-C3-C9= 85.7903       H4-C1-C9=115.7595       H4-C3-C9=179.7905
       C1-C5-C9= 60.2533       C3-C5-C9= 89.9917       H4-C5-C9=115.7943
       H6-C3-C9= 85.865        H6-C5-C9=149.8733       C1-C9-C7= 89.6197
       C3-C7-C9= 90.3803       C5-C7-C9=120.5152       H6-C7-C9=146.313 
       C1-C9-H8=115.7595       C3-C9-H8= 85.8272       C5-H8-C9= 68.5728
       H6-H8-C9= 94.3664       H8-C7-C9=119.3426      C1-C7-H10= 85.7903
      C3-C7-H10=115.7226      C5-C7-H10=145.8575      H6-C7-H10=171.6553
      C5-H8-H10= 94.2778      H6-H8-H10=120.0714      H8-C7-H10= 94.0003
      C1-C9-H10=149.1689      C3-C9-H10=179.1012      C5-C9-H10=150.9578
      C7-C9-H10=121.2114      H8-C9-H10= 95.0716      H2-C1-C11=119.9658
      C3-C1-C11=118.8228      C3-H2-C11= 67.5962      H4-C1-C11=144.9626
      H4-H2-C11= 93.3733      H4-C3-C11=149.9078      C5-C1-C11= 89.0764
      H2-C11-C5= 86.6812      C5-C3-C11= 89.9499      H4-C5-C11= 85.6677
      H6-C3-C11=115.7477      H6-C5-C11=180.          C1-C11-C7= 90.982 
      H2-C11-C7=116.8662      C3-C11-C7= 60.37        C5-C7-C11= 89.9499
      H6-C7-C11=115.7477      H8-C5-C11= 85.6677      H8-C7-C11=149.9079
      C1-C11-C9=121.594       H2-C11-C9=147.4782      C3-C11-C9= 90.982 
      C5-C9-C11= 89.0763      C7-C9-C11=118.8227      H8-C9-C11=144.9625
     C1-C11-H10=147.4782     H2-C11-H10=173.3624     C3-C11-H10=116.8662
     C5-C11-H10= 86.6812     C7-H10-C11= 67.5962     H8-H10-C11= 93.3733
     H10-C9-C11=119.9659     H2-C1-Cl12= 85.8597     C3-C1-Cl12=152.9288
     C3-H2-Cl12=105.2435     H4-C1-Cl12=179.0687     H4-H2-Cl12=131.0207
     C5-C1-Cl12=123.1825     C7-C1-Cl12= 93.2414     C1-C9-Cl12= 63.3091
     H2-Cl12-C9= 75.7247     C3-C9-Cl12= 93.2414     C5-C9-Cl12=123.1825
     C7-C9-Cl12=152.9288     H8-C9-Cl12=179.0686    C1-Cl12-H10= 75.7247
    H2-Cl12-H10= 98.0677    C7-H10-Cl12=105.2435    H8-H10-Cl12=131.0206
    H10-C9-Cl12= 85.8597    C1-C11-Cl12=119.203     H2-C11-Cl12= 93.3188
    C3-C11-Cl12=149.815     C5-C11-Cl12=180.        C7-C11-Cl12=149.815 
    C9-C11-Cl12=119.203    H10-C11-Cl12= 93.3188      C1-C9-X13= 84.6949
      C3-C9-X13=114.6272      C5-C9-X13=144.5682      C7-C9-X13=174.3146
      H8-C9-X13=159.5456     C7-H10-X13=122.4899     H8-H10-X13=148.267 
     C9-H10-X13= 89.0437     C1-C11-X13=148.8902     H2-C11-X13=123.006 
     C3-C11-X13=179.5022     C5-C11-X13=150.3129     C7-C11-X13=120.1279
     C9-C11-X13= 89.5159    H10-C11-X13= 63.6316    C1-Cl12-X13=116.6909
    H2-Cl12-X13=139.0338    C9-X13-Cl12= 95.3051   H10-X13-Cl12=121.7875
   C11-Cl12-X13= 90.       C1-Cl12-He14=153.3091   H2-Cl12-He14=130.9662
   C9-Cl12-He14=153.3091  H10-Cl12-He14=130.9662  C11-Cl12-He14=180.    
    C9-X13-He14=154.8396   H10-X13-He14=178.6781   C11-X13-He14=119.8473
  X13-Cl12-He14= 90.    
 Stoichiometry    C6H5ClHe
 Framework group  CS[SG(C6H5ClHe)]
 Deg. of freedom    23
 Full point group                 CS
 Largest Abelian subgroup         CS      NOp   2
 Largest concise Abelian subgroup C1      NOp   1
                         Standard orientation:                         
 ---------------------------------------------------------------------
 Center     Atomic     Atomic              Coordinates (Angstroms)
 Number     Number      Type              X           Y           Z
 ---------------------------------------------------------------------
    1          6             0        1.226543   -0.305252    0.000000
    2          1             0        2.164857    0.254787    0.000000
    3          6             0        1.217204   -1.712302    0.000000
    4          1             0        2.167243   -2.254697    0.000000
    5          6             0        0.000000   -2.418882    0.000000
    6          1             0        0.000000   -3.512315    0.000000
    7          6             0       -1.217204   -1.712302    0.000000
    8          1             0       -2.167243   -2.254698    0.000000
    9          6             0       -1.226543   -0.305251    0.000000
   10          1             0       -2.164857    0.254788    0.000000
   11          6             0        0.000000    0.380325    0.000000
   12         17             0        0.000000    2.134426    0.000000
   13          2             0        0.000000    3.834426    0.000000
 ---------------------------------------------------------------------
 Rotational constants (GHZ):      5.5795026      1.3135642      1.0632473
 Standard basis: 6-31++G(3d,3p) (6D, 7F)
 There are   211 symmetry adapted basis functions of A'  symmetry.
 There are    82 symmetry adapted basis functions of A"  symmetry.
 Integral buffers will be    131072 words long.
 Raffenetti 1 integral format.
 Two-electron integral symmetry is turned on.
   293 basis functions,   416 primitive gaussians,   293 cartesian basis functions
    30 alpha electrons       30 beta electrons
       nuclear repulsion energy       332.5498616292 Hartrees.
 NAtoms=   13 NActive=   13 NUniq=   13 SFac= 7.50D-01 NAtFMM=   80 NAOKFM=F Big=F
 One-electron integrals computed using PRISM.
 NBasis=   293 RedAO= T  NBF=   211    82
 NBsUse=   293 1.00D-06 NBFU=   211    82
 Initial guess read from the read-write file:
 Initial guess orbital symmetries:
       Occupied  (A') (A') (A') (A') (A') (A') (A') (A') (A') (A")
                 (A') (A') (A') (A') (A') (A') (A') (A') (A') (A')
                 (A') (A') (A') (A") (A') (A') (A") (A') (A") (A")
       Virtual   (A') (A') (A') (A') (A') (A") (A") (A') (A') (A")
                 (A') (A") (A") (A') (A') (A') (A') (A") (A') (A')
                 (A') (A') (A") (A") (A') (A") (A') (A') (A') (A')
                 (A') (A') (A') (A') (A') (A') (A") (A') (A') (A')
                 (A') (A') (A") (A") (A') (A') (A') (A') (A') (A")
                 (A') (A') (A') (A') (A") (A') (A') (A') (A") (A")
                 (A') (A') (A') (A') (A") (A') (A") (A") (A') (A')
                 (A") (A') (A') (A") (A") (A") (A") (A') (A") (A')
                 (A') (A') (A') (A') (A') (A") (A') (A') (A') (A')
                 (A") (A") (A') (A") (A") (A') (A') (A') (A') (A')
                 (A") (A') (A") (A") (A') (A') (A") (A') (A") (A")
                 (A') (A') (A') (A') (A') (A') (A") (A") (A') (A')
                 (A') (A') (A') (A') (A') (A') (A") (A') (A') (A')
                 (A') (A") (A') (A') (A') (A") (A') (A') (A') (A')
                 (A') (A") (A") (A") (A') (A") (A') (A') (A') (A')
                 (A') (A') (A') (A") (A") (A') (A') (A') (A") (A')
                 (A") (A') (A") (A") (A') (A') (A') (A') (A') (A")
                 (A') (A') (A") (A') (A") (A') (A") (A") (A') (A")
                 (A') (A') (A') (A') (A') (A') (A') (A') (A') (A')
                 (A') (A') (A') (A') (A') (A') (A') (A") (A") (A')
                 (A') (A') (A') (A') (A') (A') (A') (A') (A") (A")
                 (A") (A") (A") (A") (A') (A') (A') (A') (A') (A")
                 (A") (A') (A') (A") (A") (A") (A') (A') (A') (A')
                 (A') (A") (A') (A') (A') (A') (A') (A') (A") (A')
                 (A') (A") (A') (A") (A") (A") (A") (A') (A') (A')
                 (A') (A') (A') (A') (A') (A') (A') (A') (A') (A')
                 (A') (A') (A')
 Harris functional with IExCor=  205 diagonalized for initial guess.
 ExpMin= 3.60D-02 ExpMax= 2.52D+04 ExpMxC= 3.78D+03 IAcc=3 IRadAn=         5 AccDes= 0.00D+00
 HarFok:  IExCor= 205 AccDes= 0.00D+00 IRadAn=         5 IDoV=1
 ScaDFX=  1.000000  1.000000  1.000000  1.000000
 Requested convergence on RMS density matrix=1.00D-08 within 128 cycles.
 Requested convergence on MAX density matrix=1.00D-06.
 Requested convergence on             energy=1.00D-06.
 No special actions if energy rises.
 SCF Done:  E(RHF) =  -692.421581704     A.U. after   12 cycles
             Convg  =    0.8779D-08             -V/T =  2.0009
             S**2   =   0.0000
 ExpMin= 3.60D-02 ExpMax= 2.52D+04 ExpMxC= 3.78D+03 IAcc=3 IRadAn=         5 AccDes= 0.00D+00
 HarFok:  IExCor= 205 AccDes= 0.00D+00 IRadAn=         5 IDoV=1
 ScaDFX=  1.000000  1.000000  1.000000  1.000000
 Range of M.O.s used for correlation:    12   293
 NBasis=   293 NAE=    30 NBE=    30 NFC=    11 NFV=     0
 NROrb=    282 NOA=    19 NOB=    19 NVA=   263 NVB=   263

 **** Warning!!: The largest alpha MO coefficient is  0.24401527D+03

 Semi-Direct transformation.
 ModeAB=           4 MOrb=            19 LenV=      14856292
 LASXX=     16763530 LTotXX=    16763530 LenRXX=    34015055
 LTotAB=    17251525 MaxLAS=   214368222 LenRXY=           0
 NonZer=    50778585 LenScr=    78498816 LnRSAI=   214368222
 LnScr1=   332662784 LExtra=           0 Total=    659544877
 MaxDsk=          -1 SrtSym=           T ITran=            3
 JobTyp=0 Pass  1:  I=   1 to  19.
 Spin components of T(2) and E(2):
     alpha-alpha T2 =       0.5485711669D-01 E2=     -0.1353707098D+00
     alpha-beta  T2 =       0.2821977073D+00 E2=     -0.7760401744D+00
     beta-beta   T2 =       0.5485711669D-01 E2=     -0.1353707098D+00
 ANorm=    0.1179793177D+01
 E2=       -0.1046781594D+01 EUMP2=       -0.69346836329828D+03
 Would need an additional  1851083124 words for in-memory AO integral storage.
 DD1Dir will call FoFDir   3 times, MxPair=       128
 NAB=   190 NAA=     0 NBB=     0 NumPrc=  1.
 Petite list used in FoFDir.
 MinBra= 0 MaxBra= 2 Meth= 1.
 IRaf=       0 NMat= 128 IRICut=     128 DoRegI=T DoRafI=T ISym2E=-1 JSym2E=1.
 E3=       -0.35495299D-01        EUMP3=      -0.69350385860D+03
 Largest amplitude= 5.22D-02
 Variable Step   Value    
 -------- ---- -----------
     1       3    3.401507
 ------------------------------------------------------------------------
                         Z-MATRIX (ANGSTROMS AND DEGREES)
 CD Cent Atom  N1     Length/X     N2    Alpha/Y     N3     Beta/Z      J
 ------------------------------------------------------------------------
   1   1  C     0   0.173030         -1.226543          0.000000
   2   2  H     0  -0.387009         -2.164857          0.000000
   3   3  C     0   1.580080         -1.217204          0.000000
   4   4  H     0   2.122475         -2.167243          0.000000
   5   5  C     0   2.286660          0.000000          0.000000
   6   6  H     0   3.380093          0.000000          0.000000
   7   7  C     0   1.580080          1.217204          0.000000
   8   8  H     0   2.122476          2.167243          0.000000
   9   9  C     0   0.173029          1.226543          0.000000
  10  10  H     0  -0.387010          2.164857          0.000000
  11  11  C     0  -0.512547          0.000000          0.000000
  12  12  Cl    0  -2.266648          0.000000          0.000000
  13      X    12   1.000000( 12)  11   90.000( 24)   9    0.000( 35)   0
  14  13  He   12   1.800000( 13)  13   90.000( 25)  11  180.000( 36)   0
 ------------------------------------------------------------------------
                         Z-Matrix orientation:                         
 ---------------------------------------------------------------------
 Center     Atomic     Atomic              Coordinates (Angstroms)
 Number     Number      Type              X           Y           Z
 ---------------------------------------------------------------------
    1          6             0        0.173030   -1.226543    0.000000
    2          1             0       -0.387009   -2.164857    0.000000
    3          6             0        1.580080   -1.217204    0.000000
    4          1             0        2.122475   -2.167243    0.000000
    5          6             0        2.286660    0.000000    0.000000
    6          1             0        3.380093    0.000000    0.000000
    7          6             0        1.580080    1.217204    0.000000
    8          1             0        2.122476    2.167243    0.000000
    9          6             0        0.173029    1.226543    0.000000
   10          1             0       -0.387010    2.164857    0.000000
   11          6             0       -0.512547    0.000000    0.000000
   12         17             0       -2.266648    0.000000    0.000000
   13         -1             0       -2.266648    1.000000    0.000000
   14          2             0       -4.066648    0.000000    0.000000
 ---------------------------------------------------------------------
                    Distance matrix (angstroms):
                    1          2          3          4          5
     1  C    0.000000
     2  H    1.092738   0.000000
     3  C    1.407081   2.183457   0.000000
     4  H    2.164544   2.509485   1.093968   0.000000
     5  C    2.443735   3.440220   1.407423   2.173453   0.000000
     6  H    3.433608   4.344843   2.172932   2.505703   1.093433
     7  C    2.819874   3.912515   2.434408   3.427634   1.407423
     8  H    3.913837   5.006456   3.427634   4.334486   2.173453
     9  C    2.453086   3.437330   2.819874   3.913837   2.443736
    10  H    3.437330   4.329714   3.912516   5.006456   3.440221
    11  C    1.405142   2.168494   2.420883   3.411786   2.799207
    12  Cl   2.730648   2.866993   4.034712   4.895032   4.553308
    13  X    3.302957   3.680946   4.439967   5.412562   4.661825
    14  He   4.413533   4.269233   5.776428   6.557605   6.353308
                    6          7          8          9         10
     6  H    0.000000
     7  C    2.172932   0.000000
     8  H    2.505702   1.093969   0.000000
     9  C    3.433608   1.407082   2.164546   0.000000
    10  H    4.344844   2.183458   2.509487   1.092738   0.000000
    11  C    3.892640   2.420883   3.411787   1.405141   2.168494
    12  Cl   5.646741   4.034712   4.895033   2.730647   2.866992
    13  X    5.734604   3.852855   4.541681   2.450173   2.211319
    14  He   7.446741   5.776428   6.557606   4.413532   4.269232
                   11         12         13         14
    11  C    0.000000
    12  Cl   1.754101   0.000000
    13  X    2.019126   1.000000   0.000000
    14  He   3.554101   1.800000   2.059126   0.000000
                           Interatomic angles:
       H2-C1-C3=121.2114       H2-C1-H4= 95.0716       C1-C3-H4=119.3426
       H2-C3-H4= 94.0002       H2-C1-C5=150.9578       C1-C3-C5=120.5152
       H2-C3-C5=145.8575       C1-H4-C5= 68.5728       H2-H4-C5= 94.2778
       H4-C3-C5=120.1422       C1-C3-H6=146.313        H2-C3-H6=171.6553
       C1-H4-H6= 94.3664       H2-H4-H6=120.0715       H4-C3-H6= 94.3445
       C1-C5-H6=149.8733       C3-C5-H6=120.1349       H4-C5-H6= 94.3323
       H2-C1-C7=179.1011       C1-C3-C7= 90.3803       H2-C3-C7=115.7226
       H4-C1-C7= 85.8272       H4-C3-C7=150.2771       C1-C5-C7= 89.9917
       C3-C5-C7=119.7302       H4-C5-C7=145.5328       C1-C7-H6= 85.865 
       C3-H6-C7= 68.1347       H4-H6-C7= 93.9414       H6-C5-C7=120.1349
       C1-C5-H8=115.7944       C3-C5-H8=145.5328       H4-C5-H8=171.3354
       C3-H6-H8= 93.9414       H4-H6-H8=119.7481       H6-C5-H8= 94.3323
       C1-C7-H8=179.7906       C3-C7-H8=150.2771       C5-C7-H8=120.1422
       H6-C7-H8= 94.3444       H2-C1-C9=149.1688       C3-C1-C9= 89.6197
       H2-C3-C9= 85.7903       H4-C1-C9=115.7595       H4-C3-C9=179.7905
       C1-C5-C9= 60.2533       C3-C5-C9= 89.9917       H4-C5-C9=115.7943
       H6-C3-C9= 85.865        H6-C5-C9=149.8733       C1-C9-C7= 89.6197
       C3-C7-C9= 90.3803       C5-C7-C9=120.5152       H6-C7-C9=146.313 
       C1-C9-H8=115.7595       C3-C9-H8= 85.8272       C5-H8-C9= 68.5728
       H6-H8-C9= 94.3664       H8-C7-C9=119.3426      C1-C7-H10= 85.7903
      C3-C7-H10=115.7226      C5-C7-H10=145.8575      H6-C7-H10=171.6553
      C5-H8-H10= 94.2778      H6-H8-H10=120.0714      H8-C7-H10= 94.0003
      C1-C9-H10=149.1689      C3-C9-H10=179.1012      C5-C9-H10=150.9578
      C7-C9-H10=121.2114      H8-C9-H10= 95.0716      H2-C1-C11=119.9658
      C3-C1-C11=118.8228      C3-H2-C11= 67.5962      H4-C1-C11=144.9626
      H4-H2-C11= 93.3733      H4-C3-C11=149.9078      C5-C1-C11= 89.0764
      H2-C11-C5= 86.6812      C5-C3-C11= 89.9499      H4-C5-C11= 85.6677
      H6-C3-C11=115.7477      H6-C5-C11=180.          C1-C11-C7= 90.982 
      H2-C11-C7=116.8662      C3-C11-C7= 60.37        C5-C7-C11= 89.9499
      H6-C7-C11=115.7477      H8-C5-C11= 85.6677      H8-C7-C11=149.9079
      C1-C11-C9=121.594       H2-C11-C9=147.4782      C3-C11-C9= 90.982 
      C5-C9-C11= 89.0763      C7-C9-C11=118.8227      H8-C9-C11=144.9625
     C1-C11-H10=147.4782     H2-C11-H10=173.3624     C3-C11-H10=116.8662
     C5-C11-H10= 86.6812     C7-H10-C11= 67.5962     H8-H10-C11= 93.3733
     H10-C9-C11=119.9659     H2-C1-Cl12= 85.8597     C3-C1-Cl12=152.9288
     C3-H2-Cl12=105.2435     H4-C1-Cl12=179.0687     H4-H2-Cl12=131.0207
     C5-C1-Cl12=123.1825     C7-C1-Cl12= 93.2414     C1-C9-Cl12= 63.3091
     H2-Cl12-C9= 75.7247     C3-C9-Cl12= 93.2414     C5-C9-Cl12=123.1825
     C7-C9-Cl12=152.9288     H8-C9-Cl12=179.0686    C1-Cl12-H10= 75.7247
    H2-Cl12-H10= 98.0677    C7-H10-Cl12=105.2435    H8-H10-Cl12=131.0206
    H10-C9-Cl12= 85.8597    C1-C11-Cl12=119.203     H2-C11-Cl12= 93.3188
    C3-C11-Cl12=149.815     C5-C11-Cl12=180.        C7-C11-Cl12=149.815 
    C9-C11-Cl12=119.203    H10-C11-Cl12= 93.3188      C1-C9-X13= 84.6949
      C3-C9-X13=114.6272      C5-C9-X13=144.5682      C7-C9-X13=174.3146
      H8-C9-X13=159.5456     C7-H10-X13=122.4899     H8-H10-X13=148.267 
     C9-H10-X13= 89.0437     C1-C11-X13=148.8902     H2-C11-X13=123.006 
     C3-C11-X13=179.5022     C5-C11-X13=150.3129     C7-C11-X13=120.1279
     C9-C11-X13= 89.5159    H10-C11-X13= 63.6316    C1-Cl12-X13=116.6909
    H2-Cl12-X13=139.0338    C9-X13-Cl12= 95.3051   H10-X13-Cl12=121.7875
   C11-Cl12-X13= 90.       C1-Cl12-He14=153.3091   H2-Cl12-He14=130.9662
   C9-Cl12-He14=153.3091  H10-Cl12-He14=130.9662  C11-Cl12-He14=180.    
    C9-X13-He14=156.2505   H10-X13-He14=177.2671   C11-X13-He14=121.2583
  X13-Cl12-He14= 90.    
 Stoichiometry    C6H5ClHe
 Framework group  CS[SG(C6H5ClHe)]
 Deg. of freedom    23
 Full point group                 CS
 Largest Abelian subgroup         CS      NOp   2
 Largest concise Abelian subgroup C1      NOp   1
                         Standard orientation:                         
 ---------------------------------------------------------------------
 Center     Atomic     Atomic              Coordinates (Angstroms)
 Number     Number      Type              X           Y           Z
 ---------------------------------------------------------------------
    1          6             0        1.226543   -0.308585    0.000000
    2          1             0        2.164857    0.251454    0.000000
    3          6             0        1.217204   -1.715635    0.000000
    4          1             0        2.167243   -2.258030    0.000000
    5          6             0        0.000000   -2.422215    0.000000
    6          1             0        0.000000   -3.515648    0.000000
    7          6             0       -1.217204   -1.715635    0.000000
    8          1             0       -2.167243   -2.258031    0.000000
    9          6             0       -1.226543   -0.308584    0.000000
   10          1             0       -2.164857    0.251455    0.000000
   11          6             0        0.000000    0.376992    0.000000
   12         17             0        0.000000    2.131093    0.000000
   13          2             0        0.000000    3.931093    0.000000
 ---------------------------------------------------------------------
 Rotational constants (GHZ):      5.5795026      1.3032584      1.0564849
 Standard basis: 6-31++G(3d,3p) (6D, 7F)
 There are   211 symmetry adapted basis functions of A'  symmetry.
 There are    82 symmetry adapted basis functions of A"  symmetry.
 Integral buffers will be    131072 words long.
 Raffenetti 1 integral format.
 Two-electron integral symmetry is turned on.
   293 basis functions,   416 primitive gaussians,   293 cartesian basis functions
    30 alpha electrons       30 beta electrons
       nuclear repulsion energy       331.7755581815 Hartrees.
 NAtoms=   13 NActive=   13 NUniq=   13 SFac= 7.50D-01 NAtFMM=   80 NAOKFM=F Big=F
 One-electron integrals computed using PRISM.
 NBasis=   293 RedAO= T  NBF=   211    82
 NBsUse=   293 1.00D-06 NBFU=   211    82
 Initial guess read from the read-write file:
 Initial guess orbital symmetries:
       Occupied  (A') (A') (A') (A') (A') (A') (A') (A') (A') (A")
                 (A') (A') (A') (A') (A') (A') (A') (A') (A') (A')
                 (A') (A') (A') (A") (A') (A') (A") (A') (A") (A")
       Virtual   (A') (A') (A') (A') (A') (A") (A") (A') (A') (A")
                 (A') (A") (A") (A') (A') (A') (A') (A") (A') (A')
                 (A') (A') (A") (A") (A') (A") (A') (A') (A') (A')
                 (A') (A') (A') (A') (A') (A') (A") (A') (A') (A')
                 (A') (A') (A") (A") (A') (A') (A') (A') (A') (A")
                 (A') (A') (A') (A') (A") (A') (A') (A') (A") (A")
                 (A') (A') (A') (A') (A") (A") (A') (A') (A") (A')
                 (A") (A') (A') (A") (A") (A") (A') (A") (A") (A')
                 (A') (A') (A') (A') (A') (A") (A') (A') (A') (A')
                 (A") (A") (A') (A") (A") (A') (A') (A') (A') (A')
                 (A") (A') (A") (A") (A') (A') (A") (A') (A") (A")
                 (A') (A') (A') (A') (A') (A') (A') (A") (A") (A')
                 (A') (A') (A') (A') (A') (A') (A") (A') (A') (A')
                 (A') (A") (A') (A') (A') (A") (A') (A') (A') (A')
                 (A') (A") (A") (A") (A') (A") (A') (A') (A') (A')
                 (A') (A') (A') (A") (A") (A') (A') (A') (A') (A")
                 (A') (A") (A") (A") (A') (A') (A') (A') (A') (A")
                 (A') (A') (A") (A') (A") (A') (A") (A") (A') (A")
                 (A') (A') (A') (A') (A') (A') (A') (A') (A') (A')
                 (A') (A') (A') (A') (A') (A') (A') (A") (A") (A')
                 (A') (A') (A') (A') (A') (A') (A') (A') (A") (A")
                 (A") (A") (A") (A") (A') (A') (A') (A') (A") (A')
                 (A") (A') (A') (A") (A") (A") (A') (A') (A') (A')
                 (A') (A") (A') (A') (A') (A') (A') (A') (A") (A')
                 (A') (A") (A') (A") (A") (A") (A") (A') (A') (A')
                 (A') (A') (A') (A') (A') (A') (A') (A') (A') (A')
                 (A') (A') (A')
 Harris functional with IExCor=  205 diagonalized for initial guess.
 ExpMin= 3.60D-02 ExpMax= 2.52D+04 ExpMxC= 3.78D+03 IAcc=3 IRadAn=         5 AccDes= 0.00D+00
 HarFok:  IExCor= 205 AccDes= 0.00D+00 IRadAn=         5 IDoV=1
 ScaDFX=  1.000000  1.000000  1.000000  1.000000
 Requested convergence on RMS density matrix=1.00D-08 within 128 cycles.
 Requested convergence on MAX density matrix=1.00D-06.
 Requested convergence on             energy=1.00D-06.
 No special actions if energy rises.
 SCF Done:  E(RHF) =  -692.439521825     A.U. after   12 cycles
             Convg  =    0.6033D-08             -V/T =  2.0010
             S**2   =   0.0000
 ExpMin= 3.60D-02 ExpMax= 2.52D+04 ExpMxC= 3.78D+03 IAcc=3 IRadAn=         5 AccDes= 0.00D+00
 HarFok:  IExCor= 205 AccDes= 0.00D+00 IRadAn=         5 IDoV=1
 ScaDFX=  1.000000  1.000000  1.000000  1.000000
 Range of M.O.s used for correlation:    12   293
 NBasis=   293 NAE=    30 NBE=    30 NFC=    11 NFV=     0
 NROrb=    282 NOA=    19 NOB=    19 NVA=   263 NVB=   263

 **** Warning!!: The largest alpha MO coefficient is  0.24501769D+03

 Semi-Direct transformation.
 ModeAB=           4 MOrb=            19 LenV=      14856561
 LASXX=     16763530 LTotXX=    16763530 LenRXX=    34015055
 LTotAB=    17251525 MaxLAS=   214127112 LenRXY=           0
 NonZer=    50778585 LenScr=    78498816 LnRSAI=   214127112
 LnScr1=   332275200 LExtra=           0 Total=    658916183
 MaxDsk=          -1 SrtSym=           T ITran=            3
 JobTyp=0 Pass  1:  I=   1 to  19.
 Spin components of T(2) and E(2):
     alpha-alpha T2 =       0.5483096831D-01 E2=     -0.1351957525D+00
     alpha-beta  T2 =       0.2822971863D+00 E2=     -0.7758160738D+00
     beta-beta   T2 =       0.5483096831D-01 E2=     -0.1351957525D+00
 ANorm=    0.1179813173D+01
 E2=       -0.1046207579D+01 EUMP2=       -0.69348572940432D+03
 Would need an additional  1851083124 words for in-memory AO integral storage.
 DD1Dir will call FoFDir   3 times, MxPair=       128
 NAB=   190 NAA=     0 NBB=     0 NumPrc=  1.
 Petite list used in FoFDir.
 MinBra= 0 MaxBra= 2 Meth= 1.
 IRaf=       0 NMat= 128 IRICut=     128 DoRegI=T DoRafI=T ISym2E=-1 JSym2E=1.
 E3=       -0.35649145D-01        EUMP3=      -0.69352137855D+03
 Largest amplitude= 5.24D-02
 Variable Step   Value    
 -------- ---- -----------
     1       4    3.590480
 ------------------------------------------------------------------------
                         Z-MATRIX (ANGSTROMS AND DEGREES)
 CD Cent Atom  N1     Length/X     N2    Alpha/Y     N3     Beta/Z      J
 ------------------------------------------------------------------------
   1   1  C     0   0.173030         -1.226543          0.000000
   2   2  H     0  -0.387009         -2.164857          0.000000
   3   3  C     0   1.580080         -1.217204          0.000000
   4   4  H     0   2.122475         -2.167243          0.000000
   5   5  C     0   2.286660          0.000000          0.000000
   6   6  H     0   3.380093          0.000000          0.000000
   7   7  C     0   1.580080          1.217204          0.000000
   8   8  H     0   2.122476          2.167243          0.000000
   9   9  C     0   0.173029          1.226543          0.000000
  10  10  H     0  -0.387010          2.164857          0.000000
  11  11  C     0  -0.512547          0.000000          0.000000
  12  12  Cl    0  -2.266648          0.000000          0.000000
  13      X    12   1.000000( 12)  11   90.000( 24)   9    0.000( 35)   0
  14  13  He   12   1.900000( 13)  13   90.000( 25)  11  180.000( 36)   0
 ------------------------------------------------------------------------
                         Z-Matrix orientation:                         
 ---------------------------------------------------------------------
 Center     Atomic     Atomic              Coordinates (Angstroms)
 Number     Number      Type              X           Y           Z
 ---------------------------------------------------------------------
    1          6             0        0.173030   -1.226543    0.000000
    2          1             0       -0.387009   -2.164857    0.000000
    3          6             0        1.580080   -1.217204    0.000000
    4          1             0        2.122475   -2.167243    0.000000
    5          6             0        2.286660    0.000000    0.000000
    6          1             0        3.380093    0.000000    0.000000
    7          6             0        1.580080    1.217204    0.000000
    8          1             0        2.122476    2.167243    0.000000
    9          6             0        0.173029    1.226543    0.000000
   10          1             0       -0.387010    2.164857    0.000000
   11          6             0       -0.512547    0.000000    0.000000
   12         17             0       -2.266648    0.000000    0.000000
   13         -1             0       -2.266648    1.000000    0.000000
   14          2             0       -4.166648    0.000000    0.000000
 ---------------------------------------------------------------------
                    Distance matrix (angstroms):
                    1          2          3          4          5
     1  C    0.000000
     2  H    1.092738   0.000000
     3  C    1.407081   2.183457   0.000000
     4  H    2.164544   2.509485   1.093968   0.000000
     5  C    2.443735   3.440220   1.407423   2.173453   0.000000
     6  H    3.433608   4.344843   2.172932   2.505703   1.093433
     7  C    2.819874   3.912515   2.434408   3.427634   1.407423
     8  H    3.913837   5.006456   3.427634   4.334486   2.173453
     9  C    2.453086   3.437330   2.819874   3.913837   2.443736
[...]
  12  12  Cl    0  -2.266648          0.000000          0.000000
  13      X    12   1.000000( 12)  11   90.000( 24)   9    0.000( 35)   0
  14  13  He   12   6.000000( 13)  13   90.000( 25)  11  180.000( 36)   0
 ------------------------------------------------------------------------
                         Z-Matrix orientation:                         
 ---------------------------------------------------------------------
 Center     Atomic     Atomic              Coordinates (Angstroms)
 Number     Number      Type              X           Y           Z
 ---------------------------------------------------------------------
    1          6             0        0.173030   -1.226543    0.000000
    2          1             0       -0.387009   -2.164857    0.000000
    3          6             0        1.580080   -1.217204    0.000000
    4          1             0        2.122475   -2.167243    0.000000
    5          6             0        2.286660    0.000000    0.000000
    6          1             0        3.380093    0.000000    0.000000
    7          6             0        1.580080    1.217204    0.000000
    8          1             0        2.122476    2.167243    0.000000
    9          6             0        0.173029    1.226543    0.000000
   10          1             0       -0.387010    2.164857    0.000000
   11          6             0       -0.512547    0.000000    0.000000
   12         17             0       -2.266648    0.000000    0.000000
   13         -1             0       -2.266648    1.000000    0.000000
   14          2             0       -8.266648    0.000000    0.000000
 ---------------------------------------------------------------------
                    Distance matrix (angstroms):
                    1          2          3          4          5
     1  C    0.000000
     2  H    1.092738   0.000000
     3  C    1.407081   2.183457   0.000000
     4  H    2.164544   2.509485   1.093968   0.000000
     5  C    2.443735   3.440220   1.407423   2.173453   0.000000
     6  H    3.433608   4.344843   2.172932   2.505703   1.093433
     7  C    2.819874   3.912515   2.434408   3.427634   1.407423
     8  H    3.913837   5.006456   3.427634   4.334486   2.173453
     9  C    2.453086   3.437330   2.819874   3.913837   2.443736
    10  H    3.437330   4.329714   3.912516   5.006456   3.440221
    11  C    1.405142   2.168494   2.420883   3.411786   2.799207
    12  Cl   2.730648   2.866993   4.034712   4.895032   4.553308
    13  X    3.302957   3.680946   4.439967   5.412562   4.661825
    14  He   8.528339   8.171617   9.921675  10.612767  10.553308
                    6          7          8          9         10
     6  H    0.000000
     7  C    2.172932   0.000000
     8  H    2.505702   1.093969   0.000000
     9  C    3.433608   1.407082   2.164546   0.000000
    10  H    4.344844   2.183458   2.509487   1.092738   0.000000
    11  C    3.892640   2.420883   3.411787   1.405141   2.168494
    12  Cl   5.646741   4.034712   4.895033   2.730647   2.866992
    13  X    5.734604   3.852855   4.541681   2.450173   2.211319
    14  He  11.646741   9.921675  10.612768   8.528338   8.171616
                   11         12         13         14
    11  C    0.000000
    12  Cl   1.754101   0.000000
    13  X    2.019126   1.000000   0.000000
    14  He   7.754101   6.000000   6.082763   0.000000
                           Interatomic angles:
       H2-C1-C3=121.2114       H2-C1-H4= 95.0716       C1-C3-H4=119.3426
       H2-C3-H4= 94.0002       H2-C1-C5=150.9578       C1-C3-C5=120.5152
       H2-C3-C5=145.8575       C1-H4-C5= 68.5728       H2-H4-C5= 94.2778
       H4-C3-C5=120.1422       C1-C3-H6=146.313        H2-C3-H6=171.6553
       C1-H4-H6= 94.3664       H2-H4-H6=120.0715       H4-C3-H6= 94.3445
       C1-C5-H6=149.8733       C3-C5-H6=120.1349       H4-C5-H6= 94.3323
       H2-C1-C7=179.1011       C1-C3-C7= 90.3803       H2-C3-C7=115.7226
       H4-C1-C7= 85.8272       H4-C3-C7=150.2771       C1-C5-C7= 89.9917
       C3-C5-C7=119.7302       H4-C5-C7=145.5328       C1-C7-H6= 85.865 
       C3-H6-C7= 68.1347       H4-H6-C7= 93.9414       H6-C5-C7=120.1349
       C1-C5-H8=115.7944       C3-C5-H8=145.5328       H4-C5-H8=171.3354
       C3-H6-H8= 93.9414       H4-H6-H8=119.7481       H6-C5-H8= 94.3323
       C1-C7-H8=179.7906       C3-C7-H8=150.2771       C5-C7-H8=120.1422
       H6-C7-H8= 94.3444       H2-C1-C9=149.1688       C3-C1-C9= 89.6197
       H2-C3-C9= 85.7903       H4-C1-C9=115.7595       H4-C3-C9=179.7905
       C1-C5-C9= 60.2533       C3-C5-C9= 89.9917       H4-C5-C9=115.7943
       H6-C3-C9= 85.865        H6-C5-C9=149.8733       C1-C9-C7= 89.6197
       C3-C7-C9= 90.3803       C5-C7-C9=120.5152       H6-C7-C9=146.313 
       C1-C9-H8=115.7595       C3-C9-H8= 85.8272       C5-H8-C9= 68.5728
       H6-H8-C9= 94.3664       H8-C7-C9=119.3426      C1-C7-H10= 85.7903
      C3-C7-H10=115.7226      C5-C7-H10=145.8575      H6-C7-H10=171.6553
      C5-H8-H10= 94.2778      H6-H8-H10=120.0714      H8-C7-H10= 94.0003
      C1-C9-H10=149.1689      C3-C9-H10=179.1012      C5-C9-H10=150.9578
      C7-C9-H10=121.2114      H8-C9-H10= 95.0716      H2-C1-C11=119.9658
      C3-C1-C11=118.8228      C3-H2-C11= 67.5962      H4-C1-C11=144.9626
      H4-H2-C11= 93.3733      H4-C3-C11=149.9078      C5-C1-C11= 89.0764
      H2-C11-C5= 86.6812      C5-C3-C11= 89.9499      H4-C5-C11= 85.6677
      H6-C3-C11=115.7477      H6-C5-C11=180.          C1-C11-C7= 90.982 
      H2-C11-C7=116.8662      C3-C11-C7= 60.37        C5-C7-C11= 89.9499
      H6-C7-C11=115.7477      H8-C5-C11= 85.6677      H8-C7-C11=149.9079
      C1-C11-C9=121.594       H2-C11-C9=147.4782      C3-C11-C9= 90.982 
      C5-C9-C11= 89.0763      C7-C9-C11=118.8227      H8-C9-C11=144.9625
     C1-C11-H10=147.4782     H2-C11-H10=173.3624     C3-C11-H10=116.8662
     C5-C11-H10= 86.6812     C7-H10-C11= 67.5962     H8-H10-C11= 93.3733
     H10-C9-C11=119.9659     H2-C1-Cl12= 85.8597     C3-C1-Cl12=152.9288
     C3-H2-Cl12=105.2435     H4-C1-Cl12=179.0687     H4-H2-Cl12=131.0207
     C5-C1-Cl12=123.1825     C7-C1-Cl12= 93.2414     C1-C9-Cl12= 63.3091
     H2-Cl12-C9= 75.7247     C3-C9-Cl12= 93.2414     C5-C9-Cl12=123.1825
     C7-C9-Cl12=152.9288     H8-C9-Cl12=179.0686    C1-Cl12-H10= 75.7247
    H2-Cl12-H10= 98.0677    C7-H10-Cl12=105.2435    H8-H10-Cl12=131.0206
    H10-C9-Cl12= 85.8597    C1-C11-Cl12=119.203     H2-C11-Cl12= 93.3188
    C3-C11-Cl12=149.815     C5-C11-Cl12=180.        C7-C11-Cl12=149.815 
    C9-C11-Cl12=119.203    H10-C11-Cl12= 93.3188      C1-C9-X13= 84.6949
      C3-C9-X13=114.6272      C5-C9-X13=144.5682      C7-C9-X13=174.3146
      H8-C9-X13=159.5456     C7-H10-X13=122.4899     H8-H10-X13=148.267 
     C9-H10-X13= 89.0437     C1-C11-X13=148.8902     H2-C11-X13=123.006 
     C3-C11-X13=179.5022     C5-C11-X13=150.3129     C7-C11-X13=120.1279
     C9-C11-X13= 89.5159    H10-C11-X13= 63.6316    C1-Cl12-X13=116.6909
    H2-Cl12-X13=139.0338    C9-X13-Cl12= 95.3051   H10-X13-Cl12=121.7875
   C11-Cl12-X13= 90.    
 Stoichiometry    C6H5ClHe
 Framework group  CS[SG(C6H5ClHe)]
 Deg. of freedom    23
 Full point group                 CS
 Largest Abelian subgroup         CS      NOp   2
 Largest concise Abelian subgroup C1      NOp   1
                         Standard orientation:                         
 ---------------------------------------------------------------------
 Center     Atomic     Atomic              Coordinates (Angstroms)
 Number     Number      Type              X           Y           Z
 ---------------------------------------------------------------------
    1          6             0        1.226543   -0.448585    0.000000
    2          1             0        2.164857    0.111454    0.000000
    3          6             0        1.217204   -1.855635    0.000000
    4          1             0        2.167243   -2.398030    0.000000
    5          6             0        0.000000   -2.562215    0.000000
    6          1             0        0.000000   -3.655648    0.000000
    7          6             0       -1.217204   -1.855635    0.000000
    8          1             0       -2.167243   -2.398031    0.000000
    9          6             0       -1.226543   -0.448584    0.000000
   10          1             0       -2.164857    0.111455    0.000000
   11          6             0        0.000000    0.236992    0.000000
   12         17             0        0.000000    1.991093    0.000000
   13          2             0        0.000000    7.991093    0.000000
 ---------------------------------------------------------------------
 Rotational constants (GHZ):      5.5795026      0.8633712      0.7476759
 Standard basis: 6-31++G(3d,3p) (6D, 7F)
 There are   211 symmetry adapted basis functions of A'  symmetry.
 There are    82 symmetry adapted basis functions of A"  symmetry.
 Integral buffers will be    131072 words long.
 Raffenetti 1 integral format.
 Two-electron integral symmetry is turned on.
   293 basis functions,   416 primitive gaussians,   293 cartesian basis functions
    30 alpha electrons       30 beta electrons
       nuclear repulsion energy       320.6947789188 Hartrees.
 NAtoms=   13 NActive=   13 NUniq=   13 SFac= 7.50D-01 NAtFMM=   80 NAOKFM=F Big=F
 One-electron integrals computed using PRISM.
 NBasis=   293 RedAO= T  NBF=   211    82
 NBsUse=   293 1.00D-06 NBFU=   211    82
 Initial guess read from the read-write file:
 Initial guess orbital symmetries:
       Occupied  (A') (A') (A') (A') (A') (A') (A') (A') (A') (A")
                 (A') (A') (A') (A') (A') (A') (A') (A') (A') (A')
                 (A') (A') (A') (A") (A') (A') (A") (A') (A") (A")
       Virtual   (A') (A') (A') (A') (A') (A") (A") (A') (A') (A")
                 (A') (A") (A") (A') (A') (A') (A') (A') (A") (A')
                 (A') (A') (A') (A") (A") (A') (A") (A') (A') (A')
                 (A') (A') (A') (A') (A') (A') (A") (A') (A') (A')
                 (A') (A') (A') (A") (A") (A') (A') (A') (A') (A')
                 (A') (A") (A') (A") (A') (A') (A') (A') (A") (A')
                 (A') (A') (A") (A') (A") (A') (A') (A") (A') (A')
                 (A") (A") (A') (A") (A") (A') (A') (A") (A") (A')
                 (A") (A') (A') (A') (A") (A') (A') (A') (A') (A')
                 (A') (A") (A") (A') (A") (A') (A") (A') (A') (A")
                 (A') (A') (A") (A') (A") (A') (A") (A') (A") (A")
                 (A') (A') (A') (A') (A') (A') (A") (A') (A") (A')
                 (A') (A') (A') (A') (A') (A') (A") (A') (A') (A')
                 (A') (A') (A") (A') (A') (A') (A") (A') (A') (A')
                 (A') (A') (A") (A") (A") (A') (A") (A') (A') (A')
                 (A') (A') (A') (A') (A") (A") (A') (A') (A') (A")
                 (A") (A') (A') (A') (A") (A") (A') (A') (A') (A")
                 (A') (A') (A") (A') (A') (A") (A") (A") (A') (A")
                 (A') (A') (A') (A') (A') (A') (A') (A') (A') (A')
                 (A') (A') (A') (A') (A') (A') (A') (A") (A") (A')
                 (A') (A') (A') (A') (A') (A') (A') (A') (A") (A")
                 (A") (A") (A") (A") (A') (A') (A') (A") (A') (A')
                 (A") (A') (A') (A") (A") (A') (A") (A') (A') (A')
                 (A') (A") (A') (A') (A') (A') (A') (A') (A") (A')
                 (A') (A") (A') (A") (A") (A") (A") (A') (A') (A')
                 (A') (A') (A') (A') (A') (A') (A') (A') (A') (A')
                 (A') (A') (A')
 Harris functional with IExCor=  205 diagonalized for initial guess.
 ExpMin= 3.60D-02 ExpMax= 2.52D+04 ExpMxC= 3.78D+03 IAcc=3 IRadAn=         5 AccDes= 0.00D+00
 HarFok:  IExCor= 205 AccDes= 0.00D+00 IRadAn=         5 IDoV=1
 ScaDFX=  1.000000  1.000000  1.000000  1.000000
 Requested convergence on RMS density matrix=1.00D-08 within 128 cycles.
 Requested convergence on MAX density matrix=1.00D-06.
 Requested convergence on             energy=1.00D-06.
 No special actions if energy rises.
 SCF Done:  E(RHF) =  -692.483012747     A.U. after    5 cycles
             Convg  =    0.4915D-08             -V/T =  2.0014
             S**2   =   0.0000
 ExpMin= 3.60D-02 ExpMax= 2.52D+04 ExpMxC= 3.78D+03 IAcc=3 IRadAn=         5 AccDes= 0.00D+00
 HarFok:  IExCor= 205 AccDes= 0.00D+00 IRadAn=         5 IDoV=1
 ScaDFX=  1.000000  1.000000  1.000000  1.000000
 Range of M.O.s used for correlation:    12   293
 NBasis=   293 NAE=    30 NBE=    30 NFC=    11 NFV=     0
 NROrb=    282 NOA=    19 NOB=    19 NVA=   263 NVB=   263

 **** Warning!!: The largest alpha MO coefficient is  0.22922544D+03

 Semi-Direct transformation.
 ModeAB=           4 MOrb=            19 LenV=      14867181
 LASXX=     16763530 LTotXX=    16763530 LenRXX=    34015055
 LTotAB=    17251525 MaxLAS=   206170482 LenRXY=           0
 NonZer=    50778585 LenScr=    78498816 LnRSAI=   206170482
 LnScr1=   320273408 LExtra=           0 Total=    638957761
 MaxDsk=          -1 SrtSym=           T ITran=            3
 JobTyp=0 Pass  1:  I=   1 to  19.
 Spin components of T(2) and E(2):
     alpha-alpha T2 =       0.5467549741D-01 E2=     -0.1343375953D+00
     alpha-beta  T2 =       0.2825575830D+00 E2=     -0.7741923565D+00
     beta-beta   T2 =       0.5467549741D-01 E2=     -0.1343375953D+00
 ANorm=    0.1179791752D+01
 E2=       -0.1042867547D+01 EUMP2=       -0.69352588029378D+03
 Would need an additional  1851083124 words for in-memory AO integral storage.
 DD1Dir will call FoFDir   3 times, MxPair=       128
 NAB=   190 NAA=     0 NBB=     0 NumPrc=  1.
 Petite list used in FoFDir.
 MinBra= 0 MaxBra= 2 Meth= 1.
 IRaf=       0 NMat= 128 IRICut=     128 DoRegI=T DoRafI=T ISym2E=-1 JSym2E=1.
 E3=       -0.35880208D-01        EUMP3=      -0.69356176050D+03
 Largest amplitude= 5.30D-02
 Scan completed.

 Summary of the potential surface scan:
   N      roh         SCF          MP2          MP3    
 ----  ---------  -----------  -----------  -----------
    1     1.5000   -692.36424   -693.41256   -693.44756
    2     1.6000   -692.39713   -693.44462   -693.47990
    3     1.7000   -692.42158   -693.46836   -693.50386
    4     1.8000   -692.43952   -693.48573   -693.52138
    5     1.9000   -692.45250   -693.49824   -693.53400
    6     2.0000   -692.46178   -693.50712   -693.54294
    7     2.1000   -692.46834   -693.51333   -693.54920
    8     2.2000   -692.47293   -693.51761   -693.55351
    9     2.3000   -692.47613   -693.52054   -693.55645
   10     2.4000   -692.47834   -693.52251   -693.55843
   11     2.5000   -692.47985   -693.52383   -693.55975
   12     2.6000   -692.48089   -693.52469   -693.56061
   13     2.7000   -692.48159   -693.52525   -693.56116
   14     2.8000   -692.48207   -693.52560   -693.56151
   15     2.9000   -692.48240   -693.52582   -693.56172
   16     3.0000   -692.48261   -693.52595   -693.56184
   17     3.1000   -692.48276   -693.52602   -693.56191
   18     3.2000   -692.48286   -693.52606   -693.56195
   19     3.3000   -692.48293   -693.52607   -693.56196
   20     3.4000   -692.48297   -693.52608   -693.56196
   21     3.5000   -692.48300   -693.52607   -693.56196
   22     3.6000   -692.48302   -693.52606   -693.56195
   23     3.7000   -692.48303   -693.52605   -693.56194
   24     3.8000   -692.48304   -693.52604   -693.56192
   25     3.9000   -692.48304   -693.52603   -693.56191
   26     4.0000   -692.48304   -693.52602   -693.56190
   27     4.1000   -692.48304   -693.52601   -693.56189
   28     4.2000   -692.48304   -693.52600   -693.56188
   29     4.3000   -692.48304   -693.52599   -693.56187
   30     4.4000   -692.48304   -693.52598   -693.56186
   31     4.5000   -692.48304   -693.52597   -693.56185
   32     4.6000   -692.48304   -693.52596   -693.56184
   33     4.7000   -692.48303   -693.52595   -693.56183
   34     4.8000   -692.48303   -693.52594   -693.56182
   35     4.9000   -692.48303   -693.52593   -693.56181
   36     5.0000   -692.48303   -693.52593   -693.56181
   37     5.1000   -692.48303   -693.52592   -693.56180
   38     5.2000   -692.48302   -693.52591   -693.56179
   39     5.3000   -692.48302   -693.52591   -693.56179
   40     5.4000   -692.48302   -693.52590   -693.56178
   41     5.5000   -692.48302   -693.52590   -693.56178
   42     5.6000   -692.48302   -693.52589   -693.56177
   43     5.7000   -692.48302   -693.52589   -693.56177
   44     5.8000   -692.48301   -693.52589   -693.56177
   45     5.9000   -692.48301   -693.52588   -693.56176
   46     6.0000   -692.48301   -693.52588   -693.56176
 ----  ---------  -----------  -----------  -----------
  
 1\1\GINC-N089\Scan\RMP3-FC\6-31++G(3d,3p)\C6H5Cl1He1\FYLIN\06-May-2016
 \1\\#MP3/6-31++G(3d,3p) scan\\C1H...He 0.0 degrees\\0,1\C,0,0.17303,-1
 .226543,0.\H,0,-0.387009,-2.164857,0.\C,0,1.58008,-1.217204,0.\H,0,2.1
 22475,-2.167243,0.\C,0,2.28666,0.,0.\H,0,3.380093,0.,0.\C,0,1.58008,1.
 217204,0.\H,0,2.122476,2.167243,0.\C,0,0.173029,1.226543,0.\H,0,-0.387
 01,2.164857,0.\C,0,-0.512547,0.,0.\Cl,0,-2.266648,0.,0.\X,12,1.,11,90.
 ,9,0.,0\He,12,roh,13,90.,11,180.,0\\roh=1.5,s,45,0.1\\Version=AM64L-G0
 3RevD.02\HF=-692.3642412,-692.3971274,-692.4215817,-692.4395218,-692.4
 525032,-692.4617792,-692.4683376,-692.4729339,-692.4761306,-692.478338
 5,-692.479854,-692.4808888,-692.4815928,-692.4820708,-692.4823951,-692
 .4826149,-692.4827637,-692.4828639,-692.4829308,-692.4829749,-692.4830
 032,-692.4830208,-692.4830314,-692.4830374,-692.4830404,-692.4830417,-
 692.4830419,-692.4830414,-692.4830404,-692.4830391,-692.4830375,-692.4
 830357,-692.4830338,-692.4830318,-692.4830297,-692.4830276,-692.483025
 6,-692.4830237,-692.4830219,-692.4830202,-692.4830186,-692.4830171,-69
 2.4830158,-692.4830147,-692.4830136,-692.4830127\MP2=-693.4125645,-693
 .4446223,-693.4683633,-693.4857294,-693.4982415,-693.5071178,-693.5133
 262,-693.5176139,-693.5205403,-693.5225136,-693.5238274,-693.5246898,-
 693.5252468,-693.5255997,-693.5258178,-693.5259479,-693.5260214,-693.5
 260591,-693.5260748,-693.5260773,-693.5260724,-693.5260634,-693.526052
 5,-693.526041,-693.5260294,-693.526018,-693.526007,-693.5259963,-693.5
 259859,-693.525976,-693.5259664,-693.5259573,-693.5259486,-693.5259404
 ,-693.5259326,-693.5259255,-693.5259188,-693.5259127,-693.525907,-693.
 5259019,-693.5258973,-693.5258931,-693.5258893,-693.5258859,-693.52588
 29,-693.5258803\MP3=-693.4475601,-693.4799025,-693.5038586,-693.521378
 5,-693.5339969,-693.542944,-693.5491976,-693.5535121,-693.5564524,-693
 .5584315,-693.5597457,-693.5606055,-693.5611582,-693.5615062,-693.5617
 193,-693.5618447,-693.5619142,-693.5619487,-693.5619619,-693.5619626,-
 693.5619563,-693.5619465,-693.561935,-693.5619231,-693.5619112,-693.56
 18995,-693.5618882,-693.5618773,-693.5618667,-693.5618565,-693.5618467
 ,-693.5618374,-693.5618285,-693.5618202,-693.5618124,-693.5618051,-693
 .5617984,-693.5617923,-693.5617867,-693.5617816,-693.561777,-693.56177
 29,-693.5617692,-693.5617659,-693.561763,-693.5617605\RMSD=5.532e-09,1
 .528e-09,8.779e-09,6.033e-09,4.491e-09,3.057e-09,1.968e-09,9.449e-09,6
 .904e-09,5.205e-09,4.529e-09,8.530e-09,6.596e-09,5.413e-09,9.671e-09,6
 .367e-09,3.759e-09,2.187e-09,9.384e-09,5.639e-09,3.751e-09,2.886e-09,2
 .930e-09,3.583e-09,4.292e-09,4.722e-09,4.730e-09,4.707e-09,4.436e-09,9
 .621e-09,9.085e-09,8.698e-09,8.183e-09,7.572e-09,6.887e-09,6.062e-09,5
 .314e-09,4.560e-09,3.899e-09,3.004e-09,2.694e-09,2.201e-09,1.741e-09,9
 .342e-09,6.794e-09,4.915e-09\Thermal=0.,0.,0.,0.,0.,0.,0.,0.,0.,0.,0.,
 0.,0.,0.,0.,0.,0.,0.,0.,0.,0.,0.,0.,0.,0.,0.,0.,0.,0.,0.,0.,0.,0.,0.,0
 .,0.,0.,0.,0.,0.,0.,0.,0.,0.,0.,0.\PG=CS [SG(C6H5Cl1He1)]\\@


       THE DEATH-KNELL OF THE ATOM

 SO THE ATOMS IN TURN, WE NOW CLEARLY DISCERN,
 FLY TO BITS WITH THE UTMOST FACILITY;
 THEY WEND ON THEIR WAY, AND, IN SPLITTING, DISPLAY
 AN ABSOLUTE LACK OF STABILITY.

          SIR WM. RAMSAY, 1905
 Job cpu time:  0 days 14 hours 30 minutes 26.6 seconds.
 File lengths (MBytes):  RWF=   5397 Int=      0 D2E=      0 Chk=     23 Scr=      1
 Normal termination of Gaussian 03 at Fri May  6 07:54:26 2016.
