 Entering Gaussian System, Link 0=g03
 Initial command:
 /opt/mackerell/apps/gaussian/g03/l1.exe /tmp/fylin/gauss3117/Gau-3120.inp -scrdir=/tmp/fylin/gauss3117/
 Entering Link 1 = /opt/mackerell/apps/gaussian/g03/l1.exe PID=      3122.
  
 Copyright (c) 1988,1990,1992,1993,1995,1998,2003,2004, Gaussian, Inc.
                  All Rights Reserved.
  
 This is the Gaussian(R) 03 program.  It is based on the
 the Gaussian(R) 98 system (copyright 1998, Gaussian, Inc.),
 the Gaussian(R) 94 system (copyright 1995, Gaussian, Inc.),
 the Gaussian 92(TM) system (copyright 1992, Gaussian, Inc.),
 the Gaussian 90(TM) system (copyright 1990, Gaussian, Inc.),
 the Gaussian 88(TM) system (copyright 1988, Gaussian, Inc.),
 the Gaussian 86(TM) system (copyright 1986, Carnegie Mellon
 University), and the Gaussian 82(TM) system (copyright 1983,
 Carnegie Mellon University). Gaussian is a federally registered
 trademark of Gaussian, Inc.
  
 This software contains proprietary and confidential information,
 including trade secrets, belonging to Gaussian, Inc.
  
 This software is provided under written license and may be
 used, copied, transmitted, or stored only in accord with that
 written license.
  
 The following legend is applicable only to US Government
 contracts under FAR:
  
                    RESTRICTED RIGHTS LEGEND
  
 Use, reproduction and disclosure by the US Government is
 subject to restrictions as set forth in subparagraphs (a)
 and (c) of the Commercial Computer Software - Restricted
 Rights clause in FAR 52.227-19.
  
 Gaussian, Inc.
 340 Quinnipiac St., Bldg. 40, Wallingford CT 06492
  
  
 ---------------------------------------------------------------
 Warning -- This program may not be used in any manner that
 competes with the business of Gaussian, Inc. or will provide
 assistance to any competitor of Gaussian, Inc.  The licensee
 of this program is prohibited from giving any competitor of
 Gaussian, Inc. access to this program.  By using this program,
 the user acknowledges that Gaussian, Inc. is engaged in the
 business of creating and licensing software in the field of
 computational chemistry and represents and warrants to the
 licensee that it is not a competitor of Gaussian, Inc. and that
 it will not use this program in any manner prohibited above.
 ---------------------------------------------------------------
  

 Cite this work as:
 Gaussian 03, Revision D.02,
 M. J. Frisch, G. W. Trucks, H. B. Schlegel, G. E. Scuseria, 
 M. A. Robb, J. R. Cheeseman, J. A. Montgomery, Jr., T. Vreven, 
 K. N. Kudin, J. C. Burant, J. M. Millam, S. S. Iyengar, J. Tomasi, 
 V. Barone, B. Mennucci, M. Cossi, G. Scalmani, N. Rega, 
 G. A. Petersson, H. Nakatsuji, M. Hada, M. Ehara, K. Toyota, 
 R. Fukuda, J. Hasegawa, M. Ishida, T. Nakajima, Y. Honda, O. Kitao, 
 H. Nakai, M. Klene, X. Li, J. E. Knox, H. P. Hratchian, J. B. Cross, 
 V. Bakken, C. Adamo, J. Jaramillo, R. Gomperts, R. E. Stratmann, 
 O. Yazyev, A. J. Austin, R. Cammi, C. Pomelli, J. W. Ochterski, 
 P. Y. Ayala, K. Morokuma, G. A. Voth, P. Salvador, J. J. Dannenberg, 
 V. G. Zakrzewski, S. Dapprich, A. D. Daniels, M. C. Strain, 
 O. Farkas, D. K. Malick, A. D. Rabuck, K. Raghavachari, 
 J. B. Foresman, J. V. Ortiz, Q. Cui, A. G. Baboul, S. Clifford, 
 J. Cioslowski, B. B. Stefanov, G. Liu, A. Liashenko, P. Piskorz, 
 I. Komaromi, R. L. Martin, D. J. Fox, T. Keith, M. A. Al-Laham, 
 C. Y. Peng, A. Nanayakkara, M. Challacombe, P. M. W. Gill, 
 B. Johnson, W. Chen, M. W. Wong, C. Gonzalez, and J. A. Pople, 
 Gaussian, Inc., Wallingford CT, 2004.
 
 ******************************************
 Gaussian 03:  AM64L-G03RevD.02  1-Mar-2006
                 5-May-2016 
 ******************************************
 %mem=16MW
 ------------------------
 #MP3/6-31++G(3d,3p) scan
 ------------------------
 1/38=1,60=1/1,8;
 2/17=6,18=5,29=3,40=1/2;
 3/5=1,6=6,7=1515,11=9,16=1,25=1,30=1/1,2,3;
 4//1;
 5/5=2,38=5/2;
 8/6=3,9=120000,10=2/1,4;
 9/5=2/13;
 6/7=2,8=2,9=2,10=2,18=1/1;
 1/60=1/8(1);
 99/9=1/99;
 2/29=3/2;
 3/5=1,6=6,7=1515,11=9,16=1,25=1,30=1/1,2,3;
 4/5=5,16=3/1;
 5/5=2,38=5/2;
 8/6=3,9=120000,10=2/1,4;
 9/5=2/13;
 1/60=1/8(-6);
 99/9=1/99;
 --------------------
 C1H...Ne 0.0 degrees
 --------------------
 Symbolic Z-matrix:
 Charge =  0 Multiplicity = 1
 C1                    0.        0.82237   0. 
 CL11                  0.82536  -0.78902   0. 
 H12                   0.35656   1.34757   0.896 
 H13                   0.35656   1.34757  -0.896 
 C2                   -1.51163   0.65442   0. 
 H21                  -1.99023   1.64772   0. 
 H22                  -1.84211   0.10483  -0.89332 
 H23                  -1.84211   0.10483   0.89332 
 x                    CL11  1.       C1    90.      C2    0.       0
 Ne                   CL11 roh      x     90.      C1    180.     0
       Variables:
  roh                   1.5    Scan 45    0.1    
 
 Scan the potential surface.
 Variable   Value     No. Steps Step-Size
 -------- ----------- --------- ---------
     1       1.500000      45      0.1000
 A total of     46 points will be computed.
 ------------------------------------------------------------------------
                         Z-MATRIX (ANGSTROMS AND DEGREES)
 CD Cent Atom  N1     Length/X     N2    Alpha/Y     N3     Beta/Z      J
 ------------------------------------------------------------------------
   1   1  C     0   0.000000          0.822370          0.000000
   2   2  Cl    0   0.825357         -0.789016          0.000000
   3   3  H     0   0.356564          1.347568          0.896000
   4   4  H     0   0.356564          1.347568         -0.896000
   5   5  C     0  -1.511627          0.654420          0.000000
   6   6  H     0  -1.990226          1.647724          0.000000
   7   7  H     0  -1.842105          0.104833         -0.893316
   8   8  H     0  -1.842105          0.104833          0.893316
   9      X     2   1.000000(  8)   1   90.000( 16)   5    0.000( 23)   0
  10   9  Ne    2   1.500000(  9)   9   90.000( 17)   1  180.000( 24)   0
 ------------------------------------------------------------------------
                         Z-Matrix orientation:                         
 ---------------------------------------------------------------------
 Center     Atomic     Atomic              Coordinates (Angstroms)
 Number     Number      Type              X           Y           Z
 ---------------------------------------------------------------------
    1          6             0        0.000000    0.822370    0.000000
    2         17             0        0.825357   -0.789016    0.000000
    3          1             0        0.356564    1.347568    0.896000
    4          1             0        0.356564    1.347568   -0.896000
    5          6             0       -1.511627    0.654420    0.000000
    6          1             0       -1.990226    1.647724    0.000000
    7          1             0       -1.842105    0.104833   -0.893316
    8          1             0       -1.842105    0.104833    0.893316
    9         -1             0       -0.064683   -1.244898    0.000000
   10         10             0        1.509179   -2.124077    0.000000
 ---------------------------------------------------------------------
                    Distance matrix (angstroms):
                    1          2          3          4          5
     1  C    0.000000
     2  Cl   1.810464   0.000000
     3  H    1.098083   2.363805   0.000000
     4  H    1.098083   2.363805   1.792000   0.000000
     5  C    1.520928   2.746817   2.184813   2.184813   0.000000
     6  H    2.154579   3.723602   2.529888   2.529888   1.102592
     7  H    2.169383   2.951666   3.095188   2.525578   1.099670
     8  H    2.169383   2.951666   2.525578   3.095188   1.099670
     9  X    2.068279   1.000000   2.775093   2.775093   2.387688
    10  Ne   3.310464   1.500000   3.766119   3.766119   4.104304
                    6          7          8          9         10
     6  H    0.000000
     7  H    1.788985   0.000000
     8  H    1.788985   1.786632   0.000000
     9  X    3.474906   2.403958   2.403958   0.000000
    10  Ne   5.145126   4.122761   4.122761   1.802776   0.000000
                           Interatomic angles:
      Cl2-C1-H3=106.1207      Cl2-C1-H4=106.1207       H3-C1-H4=109.3662
      Cl2-H3-H4= 67.7252      Cl2-C1-C5=110.7818       H3-C1-C5=112.058 
      Cl2-H3-C5= 74.1792       H4-C1-C5=112.058       Cl2-H4-C5= 74.1792
       H4-H3-C5= 65.7886      Cl2-C1-H6=139.6456       H3-C1-H6= 96.7033
      Cl2-H3-H6= 99.0305       H4-C1-H6= 96.7033      Cl2-H4-H6= 99.0305
       H4-H3-H6= 69.2577       C1-C5-H6=109.3861      Cl2-C5-H6=147.4275
       H3-C5-H6= 94.8962       H4-C5-H6= 94.8962      Cl2-C1-H7= 95.3201
       H3-C1-H7=140.3472      H3-Cl2-H7= 70.2312       H4-C1-H7= 95.6195
      Cl2-H4-H7= 74.1862       H3-H4-H7= 89.9391       C1-C5-H7=110.7245
      Cl2-C5-H7= 89.6022       H3-C5-H7=138.4759       H4-C5-H7= 94.7255
       C1-H6-H7= 65.9926      Cl2-H7-H6=100.6536       H3-H6-H7= 89.8695
       H4-H7-H6= 69.4049       H6-C5-H7=108.6502      Cl2-C1-H8= 95.3201
       H3-C1-H8= 95.6195      Cl2-H3-H8= 74.1862       H4-C1-H8=140.3472
      H4-Cl2-H8= 70.2312       H4-H3-H8= 89.9391       C1-C5-H8=110.7245
      Cl2-C5-H8= 89.6022       H3-C5-H8= 94.7255       H4-C5-H8=138.4759
       C1-H6-H8= 65.9926      Cl2-H8-H6=100.6536       H3-H8-H6= 69.4049
       H4-H6-H8= 89.8695       H6-C5-H8=108.6502       C1-H7-H8= 65.6831
      Cl2-H7-H8= 72.3833       H3-H8-H7= 90.0609       H4-H7-H8= 90.0609
       H7-C5-H8=108.6521       H6-H7-H8= 60.0435      C1-Cl2-X9= 90.    
       H3-C1-X9=119.2228      H3-Cl2-X9=103.6238       H4-C1-X9=119.2228
      H4-Cl2-X9=103.6238       H4-H3-X9= 71.1633       C5-C1-X9= 81.868 
      Cl2-X9-C5=100.1793       H3-C5-X9= 74.5847       H4-C5-X9= 74.5847
       H6-C1-X9=110.7318       H6-H3-X9= 81.7019       H6-H4-X9= 81.7019
       H6-C5-X9=168.425        H7-C1-X9= 69.0747      Cl2-X9-H7=113.7103
       H3-X9-H7= 73.0044       H4-H7-X9= 68.4692       H7-C5-X9= 77.559 
       H6-H7-X9=111.0933       H8-C1-X9= 69.0747      Cl2-X9-H8=113.7103
       H3-H8-X9= 68.4692       H4-X9-H8= 73.0044       H8-C5-X9= 77.559 
       H6-H8-X9=111.0933       H8-H7-X9= 68.1855    C1-Cl2-Ne10=180.    
    H3-Cl2-Ne10=153.4951    H4-Cl2-Ne10=153.4951    C5-Cl2-Ne10=148.8232
    H7-Cl2-Ne10=132.9622    H8-Cl2-Ne10=132.9622     C1-X9-Ne10=117.3961
    X9-Cl2-Ne10= 90.         H3-X9-Ne10=108.8484     H4-X9-Ne10=108.8484
     C5-X9-Ne10=156.4892     H7-X9-Ne10=156.8244     H8-X9-Ne10=156.8244
 Stoichiometry    C2H5ClNe
 Framework group  CS[SG(C2HClNe),X(H4)]
 Deg. of freedom    13
 Full point group                 CS
 Largest Abelian subgroup         CS      NOp   2
 Largest concise Abelian subgroup CS      NOp   2
                         Standard orientation:                         
 ---------------------------------------------------------------------
 Center     Atomic     Atomic              Coordinates (Angstroms)
 Number     Number      Type              X           Y           Z
 ---------------------------------------------------------------------
    1          6             0        0.289698    1.317970    0.000000
    2         17             0        0.289698   -0.492494    0.000000
    3          1             0        0.846483    1.622867    0.896000
    4          1             0        0.846483    1.622867   -0.896000
    5          6             0       -1.132276    1.857611    0.000000
    6          1             0       -1.105420    2.959876    0.000000
    7          1             0       -1.676962    1.519115   -0.893316
    8          1             0       -1.676962    1.519115    0.893316
    9         10             0        0.289698   -1.992494    0.000000
 ---------------------------------------------------------------------
 Rotational constants (GHZ):     24.6930200      2.7613796      2.5649863
 Standard basis: 6-31++G(3d,3p) (6D, 7F)
 There are   124 symmetry adapted basis functions of A'  symmetry.
 There are    64 symmetry adapted basis functions of A"  symmetry.
 Integral buffers will be    131072 words long.
 Raffenetti 1 integral format.
 Two-electron integral symmetry is turned on.
   188 basis functions,   270 primitive gaussians,   188 cartesian basis functions
    22 alpha electrons       22 beta electrons
       nuclear repulsion energy       185.9252243127 Hartrees.
 NAtoms=    9 NActive=    9 NUniq=    7 SFac= 1.24D+00 NAtFMM=   80 NAOKFM=F Big=F
 One-electron integrals computed using PRISM.
 NBasis=   188 RedAO= T  NBF=   124    64
 NBsUse=   188 1.00D-06 NBFU=   124    64
 Harris functional with IExCor=  205 diagonalized for initial guess.
 ExpMin= 3.60D-02 ExpMax= 2.52D+04 ExpMxC= 3.78D+03 IAcc=3 IRadAn=         5 AccDes= 0.00D+00
 HarFok:  IExCor= 205 AccDes= 0.00D+00 IRadAn=         5 IDoV=1
 ScaDFX=  1.000000  1.000000  1.000000  1.000000
 Initial guess orbital symmetries:
       Occupied  (A') (A') (A') (A') (A') (A') (A') (A") (A') (A')
                 (A') (A') (A') (A") (A') (A") (A') (A') (A") (A')
                 (A') (A")
       Virtual   (A') (A') (A") (A') (A') (A") (A') (A') (A') (A")
                 (A') (A') (A") (A') (A') (A") (A') (A") (A') (A")
                 (A') (A') (A") (A') (A') (A') (A") (A') (A') (A')
                 (A") (A') (A') (A") (A") (A') (A') (A') (A") (A')
                 (A") (A') (A") (A') (A") (A') (A") (A') (A") (A')
                 (A') (A') (A") (A') (A") (A') (A') (A") (A') (A')
                 (A') (A') (A") (A') (A") (A') (A') (A') (A") (A")
                 (A') (A") (A') (A') (A") (A') (A") (A') (A') (A')
                 (A") (A') (A') (A') (A') (A") (A') (A") (A') (A")
                 (A') (A') (A') (A") (A") (A') (A") (A') (A") (A')
                 (A') (A") (A') (A') (A") (A") (A") (A') (A') (A")
                 (A') (A') (A') (A') (A") (A') (A') (A') (A') (A")
                 (A') (A") (A') (A') (A") (A') (A") (A') (A') (A')
                 (A') (A") (A') (A") (A') (A') (A") (A') (A') (A")
                 (A') (A') (A") (A') (A') (A") (A") (A") (A") (A')
                 (A") (A') (A') (A") (A') (A') (A') (A') (A") (A')
                 (A") (A') (A') (A') (A') (A')
 The electronic state of the initial guess is 1-A'.
 Requested convergence on RMS density matrix=1.00D-08 within 128 cycles.
 Requested convergence on MAX density matrix=1.00D-06.
 Requested convergence on             energy=1.00D-06.
 No special actions if energy rises.
 SCF Done:  E(RHF) =  -666.335558151     A.U. after   12 cycles
             Convg  =    0.4184D-08             -V/T =  1.9986
             S**2   =   0.0000
 ExpMin= 3.60D-02 ExpMax= 2.52D+04 ExpMxC= 3.78D+03 IAcc=3 IRadAn=         5 AccDes= 0.00D+00
 HarFok:  IExCor= 205 AccDes= 0.00D+00 IRadAn=         5 IDoV=1
 ScaDFX=  1.000000  1.000000  1.000000  1.000000
 Range of M.O.s used for correlation:     9   188
 NBasis=   188 NAE=    22 NBE=    22 NFC=     8 NFV=     0
 NROrb=    180 NOA=    14 NOB=    14 NVA=   166 NVB=   166

 **** Warning!!: The largest alpha MO coefficient is  0.48558762D+02

 Semi-Direct transformation.
 ModeAB=           4 MOrb=            14 LenV=      15915663
 LASXX=      3480434 LTotXX=     3480434 LenRXX=     7096969
 LTotAB=     3616535 MaxLAS=    33516000 LenRXY=           0
 NonZer=    10577403 LenScr=    16614400 LnRSAI=    33516000
 LnScr1=    52622336 LExtra=           0 Total=    109849705
 MaxDsk=          -1 SrtSym=           T ITran=            3
 JobTyp=0 Pass  1:  I=   1 to  14.
 Spin components of T(2) and E(2):
     alpha-alpha T2 =       0.2650342547D-01 E2=     -0.8905049560D-01
     alpha-beta  T2 =       0.1510843390D+00 E2=     -0.5300794731D+00
     beta-beta   T2 =       0.2650342547D-01 E2=     -0.8905049560D-01
 ANorm=    0.1097310890D+01
 E2=       -0.7081804643D+00 EUMP2=       -0.66704373861567D+03
 Would need an additional   302247027 words for in-memory AO integral storage.
 DD1Dir will call FoFDir   1 times, MxPair=       210
 NAB=   105 NAA=     0 NBB=     0 NumPrc=  1.
 Petite list used in FoFDir.
 MinBra= 0 MaxBra= 2 Meth= 1.
 IRaf=       0 NMat= 210 IRICut=     210 DoRegI=T DoRafI=T ISym2E=-1 JSym2E=1.
 E3=       -0.34309499D-01        EUMP3=      -0.66707804811D+03
 Largest amplitude= 1.98D-02

 **********************************************************************

            Population analysis using the SCF density.

 **********************************************************************

 Orbital symmetries:
       Occupied  (A') (A') (A') (A') (A') (A') (A") (A') (A') (A')
                 (A') (A") (A') (A') (A') (A") (A') (A') (A") (A')
                 (A") (A')
       Virtual   (A') (A') (A") (A') (A') (A") (A') (A') (A") (A')
                 (A') (A") (A') (A') (A") (A') (A') (A") (A') (A")
                 (A') (A') (A") (A') (A') (A') (A") (A') (A') (A')
                 (A") (A') (A') (A") (A') (A") (A') (A') (A") (A')
                 (A') (A") (A") (A') (A") (A') (A') (A") (A") (A')
                 (A') (A") (A') (A') (A') (A") (A') (A") (A') (A')
                 (A') (A') (A") (A') (A") (A') (A') (A') (A") (A')
                 (A") (A") (A') (A') (A') (A") (A") (A') (A') (A')
                 (A') (A") (A') (A') (A') (A") (A') (A") (A') (A")
                 (A') (A') (A") (A') (A') (A") (A') (A") (A") (A')
                 (A') (A") (A') (A") (A') (A") (A") (A') (A') (A')
                 (A") (A') (A') (A') (A") (A') (A') (A') (A') (A")
                 (A') (A') (A") (A') (A") (A') (A") (A') (A') (A')
                 (A') (A") (A') (A") (A') (A') (A") (A') (A') (A")
                 (A') (A') (A") (A') (A') (A") (A") (A") (A") (A')
                 (A") (A') (A') (A") (A') (A') (A') (A') (A") (A')
                 (A") (A') (A') (A') (A') (A')
 The electronic state is 1-A'.
 Alpha  occ. eigenvalues -- -104.81949 -32.89453 -11.22600 -11.21182 -10.55038
 Alpha  occ. eigenvalues --   -8.02293  -8.01251  -8.01248  -2.12242  -1.20373
 Alpha  occ. eigenvalues --   -1.03893  -1.00168  -1.00166  -0.91955  -0.77948
 Alpha  occ. eigenvalues --   -0.60744  -0.56398  -0.51880  -0.49848  -0.42497
 Alpha  occ. eigenvalues --   -0.42269  -0.39662
 Alpha virt. eigenvalues --    0.05107   0.06630   0.07085   0.07851   0.09525
 Alpha virt. eigenvalues --    0.10003   0.14658   0.15158   0.15666   0.17339
 Alpha virt. eigenvalues --    0.18553   0.20107   0.21213   0.21520   0.23076
 Alpha virt. eigenvalues --    0.23345   0.25360   0.33477   0.33922   0.34705
 Alpha virt. eigenvalues --    0.35942   0.37958   0.42074   0.42340   0.42398
 Alpha virt. eigenvalues --    0.46066   0.46754   0.47027   0.49015   0.51336
 Alpha virt. eigenvalues --    0.52926   0.55434   0.58927   0.60226   0.61709
 Alpha virt. eigenvalues --    0.62371   0.65093   0.69913   0.71406   0.73995
 Alpha virt. eigenvalues --    0.76230   0.76269   0.80533   0.82336   0.82994
 Alpha virt. eigenvalues --    0.83552   0.84120   0.86466   0.88945   0.90497
 Alpha virt. eigenvalues --    0.92243   0.93193   0.94516   0.94679   0.98323
 Alpha virt. eigenvalues --    0.99484   1.01925   1.03224   1.04419   1.14244
 Alpha virt. eigenvalues --    1.16814   1.17693   1.23225   1.25472   1.26869
 Alpha virt. eigenvalues --    1.27237   1.29243   1.30234   1.32966   1.41196
 Alpha virt. eigenvalues --    1.47624   1.48879   1.51394   1.51740   1.57239
 Alpha virt. eigenvalues --    1.59557   1.69497   1.69908   1.75838   1.77559
 Alpha virt. eigenvalues --    1.88870   1.92044   1.94355   2.04809   2.07362
 Alpha virt. eigenvalues --    2.10716   2.23054   2.23803   2.27460   2.30616
 Alpha virt. eigenvalues --    2.31816   2.34123   2.38133   2.38305   2.43618
 Alpha virt. eigenvalues --    2.46686   2.51075   2.60804   2.68924   2.70754
 Alpha virt. eigenvalues --    2.72813   2.76165   2.79659   2.94912   2.95165
 Alpha virt. eigenvalues --    3.10612   3.18596   3.21102   3.30415   3.36170
 Alpha virt. eigenvalues --    3.37512   3.42703   3.53286   3.55012   3.56495
 Alpha virt. eigenvalues --    3.57999   3.85083   3.95467   4.01440   4.08106
 Alpha virt. eigenvalues --    4.08765   4.14181   4.16096   5.10218   5.70696
 Alpha virt. eigenvalues --    5.71810   5.84310   5.87399   6.28703   6.46720
 Alpha virt. eigenvalues --    7.13932   8.83654   8.83820   8.91945   8.91991
 Alpha virt. eigenvalues --    9.19954   9.67982   9.68167   9.80789   9.83033
 Alpha virt. eigenvalues --    9.86845   9.95389   9.96158   9.98517  10.06389
 Alpha virt. eigenvalues --   10.07503  12.77458  12.83519  12.85831  12.86207
 Alpha virt. eigenvalues --   12.92193  12.92721  12.99824  13.04068  13.04366
 Alpha virt. eigenvalues --   13.04908  13.16294  13.42465  13.44475  13.47408
 Alpha virt. eigenvalues --   13.48537  13.53531  13.58554  13.61822  20.29671
 Alpha virt. eigenvalues --   38.61595
          Condensed to atoms (all electrons):
              1          2          3          4          5          6
     1  C    6.133462  -0.939485   0.422662   0.422662   0.282006  -0.043717
     2  Cl  -0.939485  19.808645  -0.034466  -0.034466  -0.227917  -0.002619
     3  H    0.422662  -0.034466   0.463383  -0.009150  -0.005510  -0.008228
     4  H    0.422662  -0.034466  -0.009150   0.463383  -0.005510  -0.008228
     5  C    0.282006  -0.227917  -0.005510  -0.005510   5.334552   0.437063
     6  H   -0.043717  -0.002619  -0.008228  -0.008228   0.437063   0.474128
     7  H   -0.005200   0.007340   0.003052  -0.007470   0.402716  -0.006850
     8  H   -0.005200   0.007340  -0.007470   0.003052   0.402716  -0.006850
     9  Ne   0.224864  -1.795911  -0.000195  -0.000195   0.024059   0.001371
              7          8          9
     1  C   -0.005200  -0.005200   0.224864
     2  Cl   0.007340   0.007340  -1.795911
     3  H    0.003052  -0.007470  -0.000195
     4  H   -0.007470   0.003052  -0.000195
     5  C    0.402716   0.402716   0.024059
     6  H   -0.006850  -0.006850   0.001371
     7  H    0.466342  -0.012873  -0.003192
     8  H   -0.012873   0.466342  -0.003192
     9  Ne  -0.003192  -0.003192  11.455741
 Mulliken atomic charges:
              1
     1  C   -0.492055
     2  Cl   0.211539
     3  H    0.175921
     4  H    0.175921
     5  C   -0.644174
     6  H    0.163929
     7  H    0.156135
     8  H    0.156135
     9  Ne   0.096648
 Sum of Mulliken charges=   0.00000
 Atomic charges with hydrogens summed into heavy atoms:
              1
     1  C   -0.140212
     2  Cl   0.211539
     3  H    0.000000
     4  H    0.000000
     5  C   -0.167975
     6  H    0.000000
     7  H    0.000000
     8  H    0.000000
     9  Ne   0.096648
 Sum of Mulliken charges=   0.00000
 Electronic spatial extent (au):  <R**2>=   479.2762
 Charge=     0.0000 electrons
 Dipole moment (field-independent basis, Debye):
    X=     0.0363    Y=    -1.3526    Z=     0.0000  Tot=     1.3531
 Quadrupole moment (field-independent basis, Debye-Ang):
   XX=   -32.1386   YY=   -26.2048   ZZ=   -31.3525
   XY=    -0.1119   XZ=     0.0000   YZ=     0.0000
 Traceless Quadrupole moment (field-independent basis, Debye-Ang):
   XX=    -2.2400   YY=     3.6938   ZZ=    -1.4538
   XY=    -0.1119   XZ=     0.0000   YZ=     0.0000
 Octapole moment (field-independent basis, Debye-Ang**2):
  XXX=     5.5663  YYY=   -39.4288  ZZZ=     0.0000  XYY=     4.2041
  XXY=   -10.3510  XXZ=     0.0000  XZZ=     1.6249  YZZ=    -8.6616
  YYZ=     0.0000  XYZ=     0.0000
 Hexadecapole moment (field-independent basis, Debye-Ang**3):
 XXXX=  -129.0208 YYYY=  -377.1179 ZZZZ=   -47.1913 XXXY=    56.1433
 XXXZ=     0.0000 YYYX=    51.9515 YYYZ=     0.0000 ZZZX=     0.0000
 ZZZY=     0.0000 XXYY=   -89.9110 XXZZ=   -27.1448 YYZZ=   -74.0421
 XXYZ=     0.0000 YYXZ=     0.0000 ZZXY=    18.6245
 N-N= 1.859252243127D+02 E-N=-1.959320586629D+03  KE= 6.673002107807D+02
 Symmetry A'   KE= 6.088450299243D+02
 Symmetry A"   KE= 5.845518085637D+01
 Variable Step   Value    
 -------- ---- -----------
     1       1    3.023562
 ------------------------------------------------------------------------
                         Z-MATRIX (ANGSTROMS AND DEGREES)
 CD Cent Atom  N1     Length/X     N2    Alpha/Y     N3     Beta/Z      J
 ------------------------------------------------------------------------
   1   1  C     0   0.000000          0.822370          0.000000
   2   2  Cl    0   0.825357         -0.789016          0.000000
   3   3  H     0   0.356564          1.347568          0.896000
   4   4  H     0   0.356564          1.347568         -0.896000
   5   5  C     0  -1.511627          0.654420          0.000000
   6   6  H     0  -1.990226          1.647724          0.000000
   7   7  H     0  -1.842105          0.104833         -0.893316
   8   8  H     0  -1.842105          0.104833          0.893316
   9      X     2   1.000000(  8)   1   90.000( 16)   5    0.000( 23)   0
  10   9  Ne    2   1.600000(  9)   9   90.000( 17)   1  180.000( 24)   0
 ------------------------------------------------------------------------
                         Z-Matrix orientation:                         
 ---------------------------------------------------------------------
 Center     Atomic     Atomic              Coordinates (Angstroms)
 Number     Number      Type              X           Y           Z
 ---------------------------------------------------------------------
    1          6             0        0.000000    0.822370    0.000000
    2         17             0        0.825357   -0.789016    0.000000
    3          1             0        0.356564    1.347568    0.896000
    4          1             0        0.356564    1.347568   -0.896000
    5          6             0       -1.511627    0.654420    0.000000
    6          1             0       -1.990226    1.647724    0.000000
    7          1             0       -1.842105    0.104833   -0.893316
    8          1             0       -1.842105    0.104833    0.893316
    9         -1             0       -0.064683   -1.244898    0.000000
   10         10             0        1.554767   -2.213081    0.000000
 ---------------------------------------------------------------------
                    Distance matrix (angstroms):
                    1          2          3          4          5
     1  C    0.000000
     2  Cl   1.810464   0.000000
     3  H    1.098083   2.363805   0.000000
     4  H    1.098083   2.363805   1.792000   0.000000
     5  C    1.520928   2.746817   2.184813   2.184813   0.000000
     6  H    2.154579   3.723602   2.529888   2.529888   1.102592
     7  H    2.169383   2.951666   3.095188   2.525578   1.099670
     8  H    2.169383   2.951666   2.525578   3.095188   1.099670
     9  X    2.068279   1.000000   2.775093   2.775093   2.387688
    10  Ne   3.410464   1.600000   3.862218   3.862218   4.198254
                    6          7          8          9         10
     6  H    0.000000
     7  H    1.788985   0.000000
     8  H    1.788985   1.786632   0.000000
     9  X    3.474906   2.403958   2.403958   0.000000
    10  Ne   5.241449   4.208263   4.208263   1.886796   0.000000
                           Interatomic angles:
      Cl2-C1-H3=106.1207      Cl2-C1-H4=106.1207       H3-C1-H4=109.3662
      Cl2-H3-H4= 67.7252      Cl2-C1-C5=110.7818       H3-C1-C5=112.058 
      Cl2-H3-C5= 74.1792       H4-C1-C5=112.058       Cl2-H4-C5= 74.1792
       H4-H3-C5= 65.7886      Cl2-C1-H6=139.6456       H3-C1-H6= 96.7033
      Cl2-H3-H6= 99.0305       H4-C1-H6= 96.7033      Cl2-H4-H6= 99.0305
       H4-H3-H6= 69.2577       C1-C5-H6=109.3861      Cl2-C5-H6=147.4275
       H3-C5-H6= 94.8962       H4-C5-H6= 94.8962      Cl2-C1-H7= 95.3201
       H3-C1-H7=140.3472      H3-Cl2-H7= 70.2312       H4-C1-H7= 95.6195
      Cl2-H4-H7= 74.1862       H3-H4-H7= 89.9391       C1-C5-H7=110.7245
      Cl2-C5-H7= 89.6022       H3-C5-H7=138.4759       H4-C5-H7= 94.7255
       C1-H6-H7= 65.9926      Cl2-H7-H6=100.6536       H3-H6-H7= 89.8695
       H4-H7-H6= 69.4049       H6-C5-H7=108.6502      Cl2-C1-H8= 95.3201
       H3-C1-H8= 95.6195      Cl2-H3-H8= 74.1862       H4-C1-H8=140.3472
      H4-Cl2-H8= 70.2312       H4-H3-H8= 89.9391       C1-C5-H8=110.7245
      Cl2-C5-H8= 89.6022       H3-C5-H8= 94.7255       H4-C5-H8=138.4759
       C1-H6-H8= 65.9926      Cl2-H8-H6=100.6536       H3-H8-H6= 69.4049
       H4-H6-H8= 89.8695       H6-C5-H8=108.6502       C1-H7-H8= 65.6831
      Cl2-H7-H8= 72.3833       H3-H8-H7= 90.0609       H4-H7-H8= 90.0609
       H7-C5-H8=108.6521       H6-H7-H8= 60.0435      C1-Cl2-X9= 90.    
       H3-C1-X9=119.2228      H3-Cl2-X9=103.6238       H4-C1-X9=119.2228
      H4-Cl2-X9=103.6238       H4-H3-X9= 71.1633       C5-C1-X9= 81.868 
      Cl2-X9-C5=100.1793       H3-C5-X9= 74.5847       H4-C5-X9= 74.5847
       H6-C1-X9=110.7318       H6-H3-X9= 81.7019       H6-H4-X9= 81.7019
       H6-C5-X9=168.425        H7-C1-X9= 69.0747      Cl2-X9-H7=113.7103
       H3-X9-H7= 73.0044       H4-H7-X9= 68.4692       H7-C5-X9= 77.559 
       H6-H7-X9=111.0933       H8-C1-X9= 69.0747      Cl2-X9-H8=113.7103
       H3-H8-X9= 68.4692       H4-X9-H8= 73.0044       H8-C5-X9= 77.559 
       H6-H8-X9=111.0933       H8-H7-X9= 68.1855    C1-Cl2-Ne10=180.    
    H3-Cl2-Ne10=153.4951    H4-Cl2-Ne10=153.4951    C5-Cl2-Ne10=148.8232
    H7-Cl2-Ne10=132.9622    H8-Cl2-Ne10=132.9622     C1-X9-Ne10=119.0808
    X9-Cl2-Ne10= 90.         H3-X9-Ne10=110.431      H4-X9-Ne10=110.431 
     C5-X9-Ne10=158.1739     H7-X9-Ne10=157.3264     H8-X9-Ne10=157.3264
 Stoichiometry    C2H5ClNe
 Framework group  CS[SG(C2HClNe),X(H4)]
 Deg. of freedom    13
 Full point group                 CS
 Largest Abelian subgroup         CS      NOp   2
 Largest concise Abelian subgroup CS      NOp   2
                         Standard orientation:                         
 ---------------------------------------------------------------------
 Center     Atomic     Atomic              Coordinates (Angstroms)
 Number     Number      Type              X           Y           Z
 ---------------------------------------------------------------------
    1          6             0        0.289698    1.340698    0.000000
    2         17             0        0.289698   -0.469766    0.000000
    3          1             0        0.846483    1.645594    0.896000
    4          1             0        0.846483    1.645594   -0.896000
    5          6             0       -1.132276    1.880338    0.000000
    6          1             0       -1.105420    2.982603    0.000000
    7          1             0       -1.676962    1.541842   -0.893316
    8          1             0       -1.676962    1.541842    0.893316
    9         10             0        0.289698   -2.069766    0.000000
 ---------------------------------------------------------------------
 Rotational constants (GHZ):     24.3530279      2.6544150      2.4689893
 Standard basis: 6-31++G(3d,3p) (6D, 7F)
 There are   124 symmetry adapted basis functions of A'  symmetry.
 There are    64 symmetry adapted basis functions of A"  symmetry.
 Integral buffers will be    131072 words long.
 Raffenetti 1 integral format.
 Two-electron integral symmetry is turned on.
   188 basis functions,   270 primitive gaussians,   188 cartesian basis functions
    22 alpha electrons       22 beta electrons
       nuclear repulsion energy       181.5815655019 Hartrees.
 NAtoms=    9 NActive=    9 NUniq=    7 SFac= 1.24D+00 NAtFMM=   80 NAOKFM=F Big=F
 One-electron integrals computed using PRISM.
 NBasis=   188 RedAO= T  NBF=   124    64
 NBsUse=   188 1.00D-06 NBFU=   124    64
 Initial guess read from the read-write file:
 Initial guess orbital symmetries:
       Occupied  (A') (A') (A') (A') (A') (A') (A") (A') (A') (A')
                 (A') (A") (A') (A') (A') (A") (A') (A') (A") (A')
                 (A") (A')
       Virtual   (A') (A') (A") (A') (A') (A") (A') (A') (A") (A')
                 (A') (A") (A') (A') (A") (A') (A') (A") (A') (A")
                 (A') (A') (A") (A') (A') (A') (A") (A') (A') (A')
                 (A") (A') (A') (A") (A') (A") (A') (A') (A") (A')
                 (A') (A") (A") (A') (A") (A') (A') (A") (A") (A')
                 (A') (A") (A') (A') (A') (A") (A') (A") (A') (A')
                 (A') (A') (A") (A') (A") (A') (A') (A') (A") (A')
                 (A") (A") (A') (A') (A') (A") (A") (A') (A') (A')
                 (A') (A") (A') (A') (A') (A") (A') (A") (A') (A")
                 (A') (A') (A") (A') (A') (A") (A') (A") (A") (A')
                 (A') (A") (A') (A") (A') (A") (A") (A') (A') (A')
                 (A") (A') (A') (A') (A") (A') (A') (A') (A') (A")
                 (A') (A') (A") (A') (A") (A') (A") (A') (A') (A')
                 (A') (A") (A') (A") (A') (A') (A") (A') (A') (A")
                 (A') (A') (A") (A') (A') (A") (A") (A") (A") (A')
                 (A") (A') (A') (A") (A') (A') (A') (A') (A") (A')
                 (A") (A') (A') (A') (A') (A')
 Harris functional with IExCor=  205 diagonalized for initial guess.
 ExpMin= 3.60D-02 ExpMax= 2.52D+04 ExpMxC= 3.78D+03 IAcc=3 IRadAn=         5 AccDes= 0.00D+00
 HarFok:  IExCor= 205 AccDes= 0.00D+00 IRadAn=         5 IDoV=1
 ScaDFX=  1.000000  1.000000  1.000000  1.000000
 Requested convergence on RMS density matrix=1.00D-08 within 128 cycles.
 Requested convergence on MAX density matrix=1.00D-06.
 Requested convergence on             energy=1.00D-06.
 No special actions if energy rises.
 SCF Done:  E(RHF) =  -666.418683832     A.U. after   11 cycles
             Convg  =    0.3359D-08             -V/T =  1.9990
             S**2   =   0.0000
 ExpMin= 3.60D-02 ExpMax= 2.52D+04 ExpMxC= 3.78D+03 IAcc=3 IRadAn=         5 AccDes= 0.00D+00
 HarFok:  IExCor= 205 AccDes= 0.00D+00 IRadAn=         5 IDoV=1
 ScaDFX=  1.000000  1.000000  1.000000  1.000000
 Range of M.O.s used for correlation:     9   188
 NBasis=   188 NAE=    22 NBE=    22 NFC=     8 NFV=     0
 NROrb=    180 NOA=    14 NOB=    14 NVA=   166 NVB=   166

 **** Warning!!: The largest alpha MO coefficient is  0.48404777D+02

 Semi-Direct transformation.
 ModeAB=           4 MOrb=            14 LenV=      15915943
 LASXX=      3480434 LTotXX=     3480434 LenRXX=     7096969
 LTotAB=     3616535 MaxLAS=    33470640 LenRXY=           0
 NonZer=    10577403 LenScr=    16614400 LnRSAI=    33470640
 LnScr1=    52553728 LExtra=           0 Total=    109735737
 MaxDsk=          -1 SrtSym=           T ITran=            3
 JobTyp=0 Pass  1:  I=   1 to  14.
 Spin components of T(2) and E(2):
     alpha-alpha T2 =       0.2652124281D-01 E2=     -0.8868559829D-01
     alpha-beta  T2 =       0.1514602599D+00 E2=     -0.5297858796D+00
     beta-beta   T2 =       0.2652124281D-01 E2=     -0.8868559829D-01
 ANorm=    0.1097498403D+01
 E2=       -0.7071570762D+00 EUMP2=       -0.66712584090802D+03
 Would need an additional   302247027 words for in-memory AO integral storage.
 DD1Dir will call FoFDir   1 times, MxPair=       210
 NAB=   105 NAA=     0 NBB=     0 NumPrc=  1.
 Petite list used in FoFDir.
 MinBra= 0 MaxBra= 2 Meth= 1.
 IRaf=       0 NMat= 210 IRICut=     210 DoRegI=T DoRafI=T ISym2E=-1 JSym2E=1.
 E3=       -0.34975658D-01        EUMP3=      -0.66716081657D+03
 Largest amplitude= 2.71D-02
 Variable Step   Value    
 -------- ---- -----------
     1       2    3.212534
 ------------------------------------------------------------------------
                         Z-MATRIX (ANGSTROMS AND DEGREES)
 CD Cent Atom  N1     Length/X     N2    Alpha/Y     N3     Beta/Z      J
 ------------------------------------------------------------------------
   1   1  C     0   0.000000          0.822370          0.000000
   2   2  Cl    0   0.825357         -0.789016          0.000000
   3   3  H     0   0.356564          1.347568          0.896000
   4   4  H     0   0.356564          1.347568         -0.896000
   5   5  C     0  -1.511627          0.654420          0.000000
   6   6  H     0  -1.990226          1.647724          0.000000
   7   7  H     0  -1.842105          0.104833         -0.893316
   8   8  H     0  -1.842105          0.104833          0.893316
   9      X     2   1.000000(  8)   1   90.000( 16)   5    0.000( 23)   0
  10   9  Ne    2   1.700000(  9)   9   90.000( 17)   1  180.000( 24)   0
 ------------------------------------------------------------------------
                         Z-Matrix orientation:                         
 ---------------------------------------------------------------------
 Center     Atomic     Atomic              Coordinates (Angstroms)
 Number     Number      Type              X           Y           Z
 ---------------------------------------------------------------------
    1          6             0        0.000000    0.822370    0.000000
    2         17             0        0.825357   -0.789016    0.000000
    3          1             0        0.356564    1.347568    0.896000
    4          1             0        0.356564    1.347568   -0.896000
    5          6             0       -1.511627    0.654420    0.000000
    6          1             0       -1.990226    1.647724    0.000000
    7          1             0       -1.842105    0.104833   -0.893316
    8          1             0       -1.842105    0.104833    0.893316
    9         -1             0       -0.064683   -1.244898    0.000000
   10         10             0        1.600356   -2.302085    0.000000
 ---------------------------------------------------------------------
                    Distance matrix (angstroms):
                    1          2          3          4          5
     1  C    0.000000
     2  Cl   1.810464   0.000000
     3  H    1.098083   2.363805   0.000000
     4  H    1.098083   2.363805   1.792000   0.000000
     5  C    1.520928   2.746817   2.184813   2.184813   0.000000
     6  H    2.154579   3.723602   2.529888   2.529888   1.102592
     7  H    2.169383   2.951666   3.095188   2.525578   1.099670
     8  H    2.169383   2.951666   2.525578   3.095188   1.099670
     9  X    2.068279   1.000000   2.775093   2.775093   2.387688
    10  Ne   3.510464   1.700000   3.958510   3.958510   4.292477
                    6          7          8          9         10
     6  H    0.000000
     7  H    1.788985   0.000000
     8  H    1.788985   1.786632   0.000000
     9  X    3.474906   2.403958   2.403958   0.000000
    10  Ne   5.337908   4.294392   4.294392   1.972308   0.000000
                           Interatomic angles:
      Cl2-C1-H3=106.1207      Cl2-C1-H4=106.1207       H3-C1-H4=109.3662
      Cl2-H3-H4= 67.7252      Cl2-C1-C5=110.7818       H3-C1-C5=112.058 
      Cl2-H3-C5= 74.1792       H4-C1-C5=112.058       Cl2-H4-C5= 74.1792
       H4-H3-C5= 65.7886      Cl2-C1-H6=139.6456       H3-C1-H6= 96.7033
      Cl2-H3-H6= 99.0305       H4-C1-H6= 96.7033      Cl2-H4-H6= 99.0305
       H4-H3-H6= 69.2577       C1-C5-H6=109.3861      Cl2-C5-H6=147.4275
       H3-C5-H6= 94.8962       H4-C5-H6= 94.8962      Cl2-C1-H7= 95.3201
       H3-C1-H7=140.3472      H3-Cl2-H7= 70.2312       H4-C1-H7= 95.6195
      Cl2-H4-H7= 74.1862       H3-H4-H7= 89.9391       C1-C5-H7=110.7245
      Cl2-C5-H7= 89.6022       H3-C5-H7=138.4759       H4-C5-H7= 94.7255
       C1-H6-H7= 65.9926      Cl2-H7-H6=100.6536       H3-H6-H7= 89.8695
       H4-H7-H6= 69.4049       H6-C5-H7=108.6502      Cl2-C1-H8= 95.3201
       H3-C1-H8= 95.6195      Cl2-H3-H8= 74.1862       H4-C1-H8=140.3472
      H4-Cl2-H8= 70.2312       H4-H3-H8= 89.9391       C1-C5-H8=110.7245
      Cl2-C5-H8= 89.6022       H3-C5-H8= 94.7255       H4-C5-H8=138.4759
       C1-H6-H8= 65.9926      Cl2-H8-H6=100.6536       H3-H8-H6= 69.4049
       H4-H6-H8= 89.8695       H6-C5-H8=108.6502       C1-H7-H8= 65.6831
      Cl2-H7-H8= 72.3833       H3-H8-H7= 90.0609       H4-H7-H8= 90.0609
       H7-C5-H8=108.6521       H6-H7-H8= 60.0435      C1-Cl2-X9= 90.    
       H3-C1-X9=119.2228      H3-Cl2-X9=103.6238       H4-C1-X9=119.2228
      H4-Cl2-X9=103.6238       H4-H3-X9= 71.1633       C5-C1-X9= 81.868 
      Cl2-X9-C5=100.1793       H3-C5-X9= 74.5847       H4-C5-X9= 74.5847
       H6-C1-X9=110.7318       H6-H3-X9= 81.7019       H6-H4-X9= 81.7019
       H6-C5-X9=168.425        H7-C1-X9= 69.0747      Cl2-X9-H7=113.7103
       H3-X9-H7= 73.0044       H4-H7-X9= 68.4692       H7-C5-X9= 77.559 
       H6-H7-X9=111.0933       H8-C1-X9= 69.0747      Cl2-X9-H8=113.7103
       H3-H8-X9= 68.4692       H4-X9-H8= 73.0044       H8-C5-X9= 77.559 
       H6-H8-X9=111.0933       H8-H7-X9= 68.1855    C1-Cl2-Ne10=180.    
    H3-Cl2-Ne10=153.4951    H4-Cl2-Ne10=153.4951    C5-Cl2-Ne10=148.8232
    H7-Cl2-Ne10=132.9622    H8-Cl2-Ne10=132.9622     C1-X9-Ne10=120.6206
    X9-Cl2-Ne10= 90.         H3-X9-Ne10=111.8756     H4-X9-Ne10=111.8756
     C5-X9-Ne10=159.7138     H7-X9-Ne10=157.689      H8-X9-Ne10=157.689 
 Stoichiometry    C2H5ClNe
 Framework group  CS[SG(C2HClNe),X(H4)]
 Deg. of freedom    13
 Full point group                 CS
 Largest Abelian subgroup         CS      NOp   2
 Largest concise Abelian subgroup CS      NOp   2
                         Standard orientation:                         
 ---------------------------------------------------------------------
 Center     Atomic     Atomic              Coordinates (Angstroms)
 Number     Number      Type              X           Y           Z
 ---------------------------------------------------------------------
    1          6             0        0.289698    1.363425    0.000000
    2         17             0        0.289698   -0.447039    0.000000
    3          1             0        0.846483    1.668321    0.896000
    4          1             0        0.846483    1.668321   -0.896000
    5          6             0       -1.132276    1.903065    0.000000
    6          1             0       -1.105420    3.005331    0.000000
    7          1             0       -1.676962    1.564569   -0.893316
    8          1             0       -1.676962    1.564569    0.893316
    9         10             0        0.289698   -2.147039    0.000000
 ---------------------------------------------------------------------
 Rotational constants (GHZ):     24.0303168      2.5514065      2.3765089
 Standard basis: 6-31++G(3d,3p) (6D, 7F)
 There are   124 symmetry adapted basis functions of A'  symmetry.
 There are    64 symmetry adapted basis functions of A"  symmetry.
 Integral buffers will be    131072 words long.
 Raffenetti 1 integral format.
 Two-electron integral symmetry is turned on.
   188 basis functions,   270 primitive gaussians,   188 cartesian basis functions
    22 alpha electrons       22 beta electrons
       nuclear repulsion energy       177.7076563783 Hartrees.
 NAtoms=    9 NActive=    9 NUniq=    7 SFac= 1.24D+00 NAtFMM=   80 NAOKFM=F Big=F
 One-electron integrals computed using PRISM.
 NBasis=   188 RedAO= T  NBF=   124    64
 NBsUse=   188 1.00D-06 NBFU=   124    64
 Initial guess read from the read-write file:
 Initial guess orbital symmetries:
       Occupied  (A') (A') (A') (A') (A') (A') (A") (A') (A') (A')
                 (A') (A") (A') (A') (A') (A") (A') (A') (A") (A')
                 (A") (A')
       Virtual   (A') (A') (A") (A') (A") (A') (A') (A') (A") (A')
                 (A') (A") (A') (A') (A") (A') (A') (A') (A") (A")
                 (A') (A') (A') (A") (A') (A') (A') (A") (A') (A')
                 (A") (A') (A') (A") (A') (A") (A') (A') (A") (A')
                 (A') (A") (A") (A') (A") (A') (A') (A") (A") (A')
                 (A') (A") (A') (A') (A') (A") (A') (A") (A') (A')
                 (A') (A') (A") (A') (A") (A') (A') (A') (A") (A')
                 (A") (A") (A') (A') (A') (A") (A') (A") (A') (A')
                 (A') (A") (A') (A') (A') (A") (A") (A') (A') (A")
                 (A') (A') (A') (A") (A') (A") (A') (A") (A") (A')
                 (A') (A") (A') (A') (A") (A") (A') (A") (A') (A')
                 (A") (A') (A') (A') (A") (A') (A') (A') (A') (A")
                 (A') (A') (A") (A') (A") (A') (A") (A') (A') (A')
                 (A') (A") (A') (A") (A') (A') (A") (A') (A') (A")
                 (A') (A') (A") (A') (A') (A") (A") (A") (A") (A')
                 (A") (A') (A') (A") (A') (A') (A') (A') (A") (A')
                 (A") (A') (A') (A') (A') (A')
 Harris functional with IExCor=  205 diagonalized for initial guess.
 ExpMin= 3.60D-02 ExpMax= 2.52D+04 ExpMxC= 3.78D+03 IAcc=3 IRadAn=         5 AccDes= 0.00D+00
 HarFok:  IExCor= 205 AccDes= 0.00D+00 IRadAn=         5 IDoV=1
 ScaDFX=  1.000000  1.000000  1.000000  1.000000
 Requested convergence on RMS density matrix=1.00D-08 within 128 cycles.
 Requested convergence on MAX density matrix=1.00D-06.
 Requested convergence on             energy=1.00D-06.
 No special actions if energy rises.
 SCF Done:  E(RHF) =  -666.480538241     A.U. after   10 cycles
             Convg  =    0.9763D-08             -V/T =  1.9994
             S**2   =   0.0000
 ExpMin= 3.60D-02 ExpMax= 2.52D+04 ExpMxC= 3.78D+03 IAcc=3 IRadAn=         5 AccDes= 0.00D+00
 HarFok:  IExCor= 205 AccDes= 0.00D+00 IRadAn=         5 IDoV=1
 ScaDFX=  1.000000  1.000000  1.000000  1.000000
 Range of M.O.s used for correlation:     9   188
 NBasis=   188 NAE=    22 NBE=    22 NFC=     8 NFV=     0
 NROrb=    180 NOA=    14 NOB=    14 NVA=   166 NVB=   166

 **** Warning!!: The largest alpha MO coefficient is  0.48248141D+02

 Semi-Direct transformation.
 ModeAB=           4 MOrb=            14 LenV=      15916156
 LASXX=      3480434 LTotXX=     3480434 LenRXX=     7096969
 LTotAB=     3616535 MaxLAS=    33460560 LenRXY=           0
 NonZer=    10577403 LenScr=    16614400 LnRSAI=    33460560
 LnScr1=    52519424 LExtra=           0 Total=    109691353
 MaxDsk=          -1 SrtSym=           T ITran=            3
 JobTyp=0 Pass  1:  I=   1 to  14.
 Spin components of T(2) and E(2):
     alpha-alpha T2 =       0.2648681909D-01 E2=     -0.8823673532D-01
     alpha-beta  T2 =       0.1515820676D+00 E2=     -0.5290412760D+00
     beta-beta   T2 =       0.2648681909D-01 E2=     -0.8823673532D-01
 ANorm=    0.1097522531D+01
 E2=       -0.7055147466D+00 EUMP2=       -0.66718605298762D+03
 Would need an additional   302247027 words for in-memory AO integral storage.
 DD1Dir will call FoFDir   1 times, MxPair=       210
 NAB=   105 NAA=     0 NBB=     0 NumPrc=  1.
 Petite list used in FoFDir.
 MinBra= 0 MaxBra= 2 Meth= 1.
 IRaf=       0 NMat= 210 IRICut=     210 DoRegI=T DoRafI=T ISym2E=-1 JSym2E=1.
 E3=       -0.35698282D-01        EUMP3=      -0.66722175127D+03
 Largest amplitude= 3.48D-02
 Variable Step   Value    
 -------- ---- -----------
     1       3    3.401507
 ------------------------------------------------------------------------
                         Z-MATRIX (ANGSTROMS AND DEGREES)
 CD Cent Atom  N1     Length/X     N2    Alpha/Y     N3     Beta/Z      J
 ------------------------------------------------------------------------
   1   1  C     0   0.000000          0.822370          0.000000
   2   2  Cl    0   0.825357         -0.789016          0.000000
   3   3  H     0   0.356564          1.347568          0.896000
   4   4  H     0   0.356564          1.347568         -0.896000
   5   5  C     0  -1.511627          0.654420          0.000000
   6   6  H     0  -1.990226          1.647724          0.000000
   7   7  H     0  -1.842105          0.104833         -0.893316
   8   8  H     0  -1.842105          0.104833          0.893316
   9      X     2   1.000000(  8)   1   90.000( 16)   5    0.000( 23)   0
  10   9  Ne    2   1.800000(  9)   9   90.000( 17)   1  180.000( 24)   0
 ------------------------------------------------------------------------
                         Z-Matrix orientation:                         
 ---------------------------------------------------------------------
 Center     Atomic     Atomic              Coordinates (Angstroms)
 Number     Number      Type              X           Y           Z
 ---------------------------------------------------------------------
    1          6             0        0.000000    0.822370    0.000000
    2         17             0        0.825357   -0.789016    0.000000
    3          1             0        0.356564    1.347568    0.896000
    4          1             0        0.356564    1.347568   -0.896000
    5          6             0       -1.511627    0.654420    0.000000
    6          1             0       -1.990226    1.647724    0.000000
    7          1             0       -1.842105    0.104833   -0.893316
    8          1             0       -1.842105    0.104833    0.893316
    9         -1             0       -0.064683   -1.244898    0.000000
   10         10             0        1.645944   -2.391089    0.000000
 ---------------------------------------------------------------------
                    Distance matrix (angstroms):
                    1          2          3          4          5
     1  C    0.000000
     2  Cl   1.810464   0.000000
     3  H    1.098083   2.363805   0.000000
     4  H    1.098083   2.363805   1.792000   0.000000
     5  C    1.520928   2.746817   2.184813   2.184813   0.000000
     6  H    2.154579   3.723602   2.529888   2.529888   1.102592
     7  H    2.169383   2.951666   3.095188   2.525578   1.099670
     8  H    2.169383   2.951666   2.525578   3.095188   1.099670
     9  X    2.068279   1.000000   2.775093   2.775093   2.387688
    10  Ne   3.610464   1.800000   4.054981   4.054981   4.386955
                    6          7          8          9         10
     6  H    0.000000
     7  H    1.788985   0.000000
     8  H    1.788985   1.786632   0.000000
     9  X    3.474906   2.403958   2.403958   0.000000
    10  Ne   5.434495   4.381110   4.381110   2.059126   0.000000
                           Interatomic angles:
      Cl2-C1-H3=106.1207      Cl2-C1-H4=106.1207       H3-C1-H4=109.3662
      Cl2-H3-H4= 67.7252      Cl2-C1-C5=110.7818       H3-C1-C5=112.058 
      Cl2-H3-C5= 74.1792       H4-C1-C5=112.058       Cl2-H4-C5= 74.1792
       H4-H3-C5= 65.7886      Cl2-C1-H6=139.6456       H3-C1-H6= 96.7033
      Cl2-H3-H6= 99.0305       H4-C1-H6= 96.7033      Cl2-H4-H6= 99.0305
       H4-H3-H6= 69.2577       C1-C5-H6=109.3861      Cl2-C5-H6=147.4275
       H3-C5-H6= 94.8962       H4-C5-H6= 94.8962      Cl2-C1-H7= 95.3201
       H3-C1-H7=140.3472      H3-Cl2-H7= 70.2312       H4-C1-H7= 95.6195
      Cl2-H4-H7= 74.1862       H3-H4-H7= 89.9391       C1-C5-H7=110.7245
      Cl2-C5-H7= 89.6022       H3-C5-H7=138.4759       H4-C5-H7= 94.7255
       C1-H6-H7= 65.9926      Cl2-H7-H6=100.6536       H3-H6-H7= 89.8695
       H4-H7-H6= 69.4049       H6-C5-H7=108.6502      Cl2-C1-H8= 95.3201
       H3-C1-H8= 95.6195      Cl2-H3-H8= 74.1862       H4-C1-H8=140.3472
      H4-Cl2-H8= 70.2312       H4-H3-H8= 89.9391       C1-C5-H8=110.7245
      Cl2-C5-H8= 89.6022       H3-C5-H8= 94.7255       H4-C5-H8=138.4759
       C1-H6-H8= 65.9926      Cl2-H8-H6=100.6536       H3-H8-H6= 69.4049
       H4-H6-H8= 89.8695       H6-C5-H8=108.6502       C1-H7-H8= 65.6831
      Cl2-H7-H8= 72.3833       H3-H8-H7= 90.0609       H4-H7-H8= 90.0609
       H7-C5-H8=108.6521       H6-H7-H8= 60.0435      C1-Cl2-X9= 90.    
       H3-C1-X9=119.2228      H3-Cl2-X9=103.6238       H4-C1-X9=119.2228
      H4-Cl2-X9=103.6238       H4-H3-X9= 71.1633       C5-C1-X9= 81.868 
      Cl2-X9-C5=100.1793       H3-C5-X9= 74.5847       H4-C5-X9= 74.5847
       H6-C1-X9=110.7318       H6-H3-X9= 81.7019       H6-H4-X9= 81.7019
       H6-C5-X9=168.425        H7-C1-X9= 69.0747      Cl2-X9-H7=113.7103
       H3-X9-H7= 73.0044       H4-H7-X9= 68.4692       H7-C5-X9= 77.559 
       H6-H7-X9=111.0933       H8-C1-X9= 69.0747      Cl2-X9-H8=113.7103
       H3-H8-X9= 68.4692       H4-X9-H8= 73.0044       H8-C5-X9= 77.559 
       H6-H8-X9=111.0933       H8-H7-X9= 68.1855    C1-Cl2-Ne10=180.    
    H3-Cl2-Ne10=153.4951    H4-Cl2-Ne10=153.4951    C5-Cl2-Ne10=148.8232
    H7-Cl2-Ne10=132.9622    H8-Cl2-Ne10=132.9622     C1-X9-Ne10=122.0316
    X9-Cl2-Ne10= 90.         H3-X9-Ne10=113.1975     H4-X9-Ne10=113.1975
     C5-X9-Ne10=161.1247     H7-X9-Ne10=157.9366     H8-X9-Ne10=157.9366
 Stoichiometry    C2H5ClNe
 Framework group  CS[SG(C2HClNe),X(H4)]
 Deg. of freedom    13
 Full point group                 CS
 Largest Abelian subgroup         CS      NOp   2
 Largest concise Abelian subgroup CS      NOp   2
                         Standard orientation:                         
 ---------------------------------------------------------------------
 Center     Atomic     Atomic              Coordinates (Angstroms)
 Number     Number      Type              X           Y           Z
 ---------------------------------------------------------------------
    1          6             0       -0.289698   -1.386152    0.000000
    2         17             0       -0.289698    0.424312    0.000000
    3          1             0       -0.846483   -1.691049    0.896000
    4          1             0       -0.846483   -1.691049   -0.896000
    5          6             0        1.132276   -1.925793    0.000000
    6          1             0        1.105420   -3.028058    0.000000
    7          1             0        1.676962   -1.587297   -0.893316
    8          1             0        1.676962   -1.587297    0.893316
    9         10             0       -0.289698    2.224312    0.000000
 ---------------------------------------------------------------------
 Rotational constants (GHZ):     23.7244802      2.4523726      2.2875471
 Standard basis: 6-31++G(3d,3p) (6D, 7F)
 There are   124 symmetry adapted basis functions of A'  symmetry.
 There are    64 symmetry adapted basis functions of A"  symmetry.
 Integral buffers will be    131072 words long.
 Raffenetti 1 integral format.
 Two-electron integral symmetry is turned on.
   188 basis functions,   270 primitive gaussians,   188 cartesian basis functions
    22 alpha electrons       22 beta electrons
       nuclear repulsion energy       174.2279651444 Hartrees.
 NAtoms=    9 NActive=    9 NUniq=    7 SFac= 1.24D+00 NAtFMM=   80 NAOKFM=F Big=F
 One-electron integrals computed using PRISM.
 NBasis=   188 RedAO= T  NBF=   124    64
 NBsUse=   188 1.00D-06 NBFU=   124    64
 Initial guess read from the read-write file:
 Initial guess orbital symmetries:
       Occupied  (A') (A') (A') (A') (A') (A') (A") (A') (A') (A')
                 (A') (A') (A") (A') (A') (A") (A') (A') (A") (A')
                 (A') (A")
       Virtual   (A') (A') (A") (A') (A") (A') (A') (A') (A") (A')
                 (A') (A") (A') (A') (A") (A') (A') (A') (A") (A")
                 (A') (A') (A') (A') (A") (A') (A') (A") (A') (A')
                 (A") (A') (A') (A") (A') (A") (A') (A') (A") (A')
                 (A") (A') (A") (A') (A") (A') (A') (A") (A") (A')
                 (A') (A") (A') (A') (A') (A") (A') (A") (A') (A')
                 (A') (A') (A') (A") (A") (A') (A') (A') (A") (A')
                 (A") (A") (A') (A') (A') (A") (A') (A") (A') (A')
                 (A') (A") (A') (A') (A') (A") (A') (A") (A') (A")
                 (A') (A') (A') (A") (A') (A") (A') (A") (A') (A")
                 (A') (A") (A') (A') (A") (A') (A") (A") (A') (A')
                 (A") (A') (A') (A') (A") (A') (A') (A') (A') (A")
                 (A') (A') (A") (A') (A") (A') (A") (A') (A') (A')
                 (A') (A") (A') (A") (A') (A') (A') (A") (A') (A")
                 (A') (A') (A") (A') (A') (A") (A") (A") (A") (A')
                 (A") (A') (A') (A') (A") (A') (A') (A') (A") (A')
                 (A") (A') (A') (A') (A') (A')
 Harris functional with IExCor=  205 diagonalized for initial guess.
 ExpMin= 3.60D-02 ExpMax= 2.52D+04 ExpMxC= 3.78D+03 IAcc=3 IRadAn=         5 AccDes= 0.00D+00
 HarFok:  IExCor= 205 AccDes= 0.00D+00 IRadAn=         5 IDoV=1
 ScaDFX=  1.000000  1.000000  1.000000  1.000000
 Requested convergence on RMS density matrix=1.00D-08 within 128 cycles.
 Requested convergence on MAX density matrix=1.00D-06.
 Requested convergence on             energy=1.00D-06.
 No special actions if energy rises.
 SCF Done:  E(RHF) =  -666.525887808     A.U. after   13 cycles
             Convg  =    0.3535D-08             -V/T =  1.9997
             S**2   =   0.0000
 ExpMin= 3.60D-02 ExpMax= 2.52D+04 ExpMxC= 3.78D+03 IAcc=3 IRadAn=         5 AccDes= 0.00D+00
 HarFok:  IExCor= 205 AccDes= 0.00D+00 IRadAn=         5 IDoV=1
 ScaDFX=  1.000000  1.000000  1.000000  1.000000
 Range of M.O.s used for correlation:     9   188
 NBasis=   188 NAE=    22 NBE=    22 NFC=     8 NFV=     0
 NROrb=    180 NOA=    14 NOB=    14 NVA=   166 NVB=   166

 **** Warning!!: The largest alpha MO coefficient is  0.48066344D+02

 Semi-Direct transformation.
 ModeAB=           4 MOrb=            14 LenV=      15916636
 LASXX=      3480434 LTotXX=     3480434 LenRXX=     7096969
 LTotAB=     3616535 MaxLAS=    33301800 LenRXY=           0
 NonZer=    10577403 LenScr=    16614400 LnRSAI=    33301800
 LnScr1=    52279296 LExtra=           0 Total=    109292465
 MaxDsk=          -1 SrtSym=           T ITran=            3
 JobTyp=0 Pass  1:  I=   1 to  14.
 Spin components of T(2) and E(2):
     alpha-alpha T2 =       0.2643105416D-01 E2=     -0.8779554186D-01
     alpha-beta  T2 =       0.1515923392D+00 E2=     -0.5282105134D+00
     beta-beta   T2 =       0.2643105416D-01 E2=     -0.8779554186D-01
 ANorm=    0.1097476400D+01
 E2=       -0.7038015971D+00 EUMP2=       -0.66722968940499D+03
 Would need an additional   302247027 words for in-memory AO integral storage.
 DD1Dir will call FoFDir   1 times, MxPair=       210
 NAB=   105 NAA=     0 NBB=     0 NumPrc=  1.
 Petite list used in FoFDir.
 MinBra= 0 MaxBra= 2 Meth= 1.
 IRaf=       0 NMat= 210 IRICut=     210 DoRegI=T DoRafI=T ISym2E=-1 JSym2E=1.
 E3=       -0.36340671D-01        EUMP3=      -0.66726603008D+03
 Largest amplitude= 3.60D-02
 Variable Step   Value    
 -------- ---- -----------
     1       4    3.590480
 ------------------------------------------------------------------------
                         Z-MATRIX (ANGSTROMS AND DEGREES)
 CD Cent Atom  N1     Length/X     N2    Alpha/Y     N3     Beta/Z      J
 ------------------------------------------------------------------------
   1   1  C     0   0.000000          0.822370          0.000000
   2   2  Cl    0   0.825357         -0.789016          0.000000
   3   3  H     0   0.356564          1.347568          0.896000
   4   4  H     0   0.356564          1.347568         -0.896000
   5   5  C     0  -1.511627          0.654420          0.000000
   6   6  H     0  -1.990226          1.647724          0.000000
   7   7  H     0  -1.842105          0.104833         -0.893316
   8   8  H     0  -1.842105          0.104833          0.893316
   9      X     2   1.000000(  8)   1   90.000( 16)   5    0.000( 23)   0
  10   9  Ne    2   1.900000(  9)   9   90.000( 17)   1  180.000( 24)   0
 ------------------------------------------------------------------------
                         Z-Matrix orientation:                         
 ---------------------------------------------------------------------
 Center     Atomic     Atomic              Coordinates (Angstroms)
 Number     Number      Type              X           Y           Z
 ---------------------------------------------------------------------
    1          6             0        0.000000    0.822370    0.000000
    2         17             0        0.825357   -0.789016    0.000000
    3          1             0        0.356564    1.347568    0.896000
    4          1             0        0.356564    1.347568   -0.896000
    5          6             0       -1.511627    0.654420    0.000000
    6          1             0       -1.990226    1.647724    0.000000
    7          1             0       -1.842105    0.104833   -0.893316
    8          1             0       -1.842105    0.104833    0.893316
    9         -1             0       -0.064683   -1.244898    0.000000
   10         10             0        1.691532   -2.480093    0.000000
 ---------------------------------------------------------------------
                    Distance matrix (angstroms):
                    1          2          3          4          5
     1  C    0.000000
     2  Cl   1.810464   0.000000
     3  H    1.098083   2.363805   0.000000
     4  H    1.098083   2.363805   1.792000   0.000000
     5  C    1.520928   2.746817   2.184813   2.184813   0.000000
     6  H    2.154579   3.723602   2.529888   2.529888   1.102592
     7  H    2.169383   2.951666   3.095188   2.525578   1.099670
     8  H    2.169383   2.951666   2.525578   3.095188   1.099670
     9  X    2.068279   1.000000   2.775093   2.775093   2.387688
    10  Ne   3.710464   1.900000   4.151619   4.151619   4.481674
                    6          7          8          9         10
     6  H    0.000000
     7  H    1.788985   0.000000
     8  H    1.788985   1.786632   0.000000
     9  X    3.474906   2.403958   2.403958   0.000000
    10  Ne   5.531204   4.468383   4.468383   2.147091   0.000000
                           Interatomic angles:
      Cl2-C1-H3=106.1207      Cl2-C1-H4=106.1207       H3-C1-H4=109.3662
      Cl2-H3-H4= 67.7252      Cl2-C1-C5=110.7818       H3-C1-C5=112.058 
      Cl2-H3-C5= 74.1792       H4-C1-C5=112.058       Cl2-H4-C5= 74.1792
       H4-H3-C5= 65.7886      Cl2-C1-H6=139.6456       H3-C1-H6= 96.7033
      Cl2-H3-H6= 99.0305       H4-C1-H6= 96.7033      Cl2-H4-H6= 99.0305
       H4-H3-H6= 69.2577       C1-C5-H6=109.3861      Cl2-C5-H6=147.4275
       H3-C5-H6= 94.8962       H4-C5-H6= 94.8962      Cl2-C1-H7= 95.3201
       H3-C1-H7=140.3472      H3-Cl2-H7= 70.2312       H4-C1-H7= 95.6195
      Cl2-H4-H7= 74.1862       H3-H4-H7= 89.9391       C1-C5-H7=110.7245
      Cl2-C5-H7= 89.6022       H3-C5-H7=138.4759       H4-C5-H7= 94.7255
       C1-H6-H7= 65.9926      Cl2-H7-H6=100.6536       H3-H6-H7= 89.8695
       H4-H7-H6= 69.4049       H6-C5-H7=108.6502      Cl2-C1-H8= 95.3201
       H3-C1-H8= 95.6195      Cl2-H3-H8= 74.1862       H4-C1-H8=140.3472
      H4-Cl2-H8= 70.2312       H4-H3-H8= 89.9391       C1-C5-H8=110.7245
      Cl2-C5-H8= 89.6022       H3-C5-H8= 94.7255       H4-C5-H8=138.4759
       C1-H6-H8= 65.9926      Cl2-H8-H6=100.6536       H3-H8-H6= 69.4049
       H4-H6-H8= 89.8695       H6-C5-H8=108.6502       C1-H7-H8= 65.6831
      Cl2-H7-H8= 72.3833       H3-H8-H7= 90.0609       H4-H7-H8= 90.0609
       H7-C5-H8=108.6521       H6-H7-H8= 60.0435      C1-Cl2-X9= 90.    
       H3-C1-X9=119.2228      H3-Cl2-X9=103.6238       H4-C1-X9=119.2228
      H4-Cl2-X9=103.6238       H4-H3-X9= 71.1633       C5-C1-X9= 81.868 
      Cl2-X9-C5=100.1793       H3-C5-X9= 74.5847       H4-C5-X9= 74.5847
       H6-C1-X9=110.7318       H6-H3-X9= 81.7019       H6-H4-X9= 81.7019
       H6-C5-X9=168.425        H7-C1-X9= 69.0747      Cl2-X9-H7=113.7103
       H3-X9-H7= 73.0044       H4-H7-X9= 68.4692       H7-C5-X9= 77.559 
       H6-H7-X9=111.0933       H8-C1-X9= 69.0747      Cl2-X9-H8=113.7103
       H3-H8-X9= 68.4692       H4-X9-H8= 73.0044       H8-C5-X9= 77.559 
       H6-H8-X9=111.0933       H8-H7-X9= 68.1855    C1-Cl2-Ne10=180.    
    H3-Cl2-Ne10=153.4951    H4-Cl2-Ne10=153.4951    C5-Cl2-Ne10=148.8232
    H7-Cl2-Ne10=132.9622    H8-Cl2-Ne10=132.9622     C1-X9-Ne10=123.3276
    X9-Cl2-Ne10= 90.         H3-X9-Ne10=114.4102     H4-X9-Ne10=114.4102
     C5-X9-Ne10=162.4208     H7-X9-Ne10=158.0903     H8-X9-Ne10=158.0903
 Stoichiometry    C2H5ClNe
 Framework group  CS[SG(C2HClNe),X(H4)]
 Deg. of freedom    13
 Full point group                 CS
 Largest Abelian subgroup         CS      NOp   2
 Largest concise Abelian subgroup CS      NOp   2
                         Standard orientation:                         
 ---------------------------------------------------------------------
 Center     Atomic     Atomic              Coordinates (Angstroms)
 Number     Number      Type              X           Y           Z
 ---------------------------------------------------------------------
    1          6             0       -0.289698   -1.408879    0.000000
    2         17             0       -0.289698    0.401584    0.000000
    3          1             0       -0.846483   -1.713776    0.896000
    4          1             0       -0.846483   -1.713776   -0.896000
    5          6             0        1.132276   -1.948520    0.000000
    6          1             0        1.105420   -3.050785    0.000000
    7          1             0        1.676962   -1.610024   -0.893316
    8          1             0        1.676962   -1.610024    0.893316
    9         10             0       -0.289698    2.301584    0.000000
 ---------------------------------------------------------------------
 Rotational constants (GHZ):     23.4349663      2.3572969      2.2020781
 Standard basis: 6-31++G(3d,3p) (6D, 7F)
 There are   124 symmetry adapted basis functions of A'  symmetry.
 There are    64 symmetry adapted basis functions of A"  symmetry.
 Integral buffers will be    131072 words long.
 Raffenetti 1 integral format.
 Two-electron integral symmetry is turned on.
   188 basis functions,   270 primitive gaussians,   188 cartesian basis functions
    22 alpha electrons       22 beta electrons
       nuclear repulsion energy       171.0826226036 Hartrees.
 NAtoms=    9 NActive=    9 NUniq=    7 SFac= 1.24D+00 NAtFMM=   80 NAOKFM=F Big=F
 One-electron integrals computed using PRISM.
 NBasis=   188 RedAO= T  NBF=   124    64
 NBsUse=   188 1.00D-06 NBFU=   124    64
 Initial guess read from the read-write file:
 Initial guess orbital symmetries:
       Occupied  (A') (A') (A') (A') (A') (A') (A") (A') (A') (A')
                 (A') (A') (A") (A') (A') (A") (A') (A') (A") (A')
                 (A') (A")
       Virtual   (A') (A') (A") (A') (A") (A') (A') (A') (A") (A')
                 (A') (A") (A') (A') (A') (A") (A') (A') (A") (A")
                 (A') (A') (A') (A') (A") (A') (A') (A") (A') (A")
                 (A') (A') (A') (A") (A') (A") (A') (A') (A") (A')
                 (A") (A') (A") (A') (A") (A') (A') (A") (A") (A')
                 (A') (A") (A') (A') (A') (A") (A') (A") (A') (A')
                 (A') (A') (A') (A") (A") (A') (A') (A') (A") (A')
                 (A") (A") (A') (A') (A") (A') (A") (A') (A') (A')
                 (A') (A") (A') (A') (A') (A") (A') (A") (A') (A')
                 (A") (A') (A') (A") (A') (A") (A') (A") (A') (A")
                 (A') (A") (A') (A') (A") (A') (A") (A") (A') (A')
                 (A") (A') (A') (A') (A") (A') (A') (A') (A') (A")
                 (A') (A") (A') (A') (A") (A') (A") (A') (A') (A')
                 (A') (A") (A') (A") (A') (A') (A') (A") (A') (A")
                 (A') (A') (A") (A') (A') (A") (A") (A") (A") (A')
                 (A") (A') (A') (A') (A") (A') (A') (A') (A") (A')
                 (A") (A') (A') (A') (A') (A')
 Harris functional with IExCor=  205 diagonalized for initial guess.
 ExpMin= 3.60D-02 ExpMax= 2.52D+04 ExpMxC= 3.78D+03 IAcc=3 IRadAn=         5 AccDes= 0.00D+00
 HarFok:  IExCor= 205 AccDes= 0.00D+00 IRadAn=         5 IDoV=1
 ScaDFX=  1.000000  1.000000  1.000000  1.000000
 Requested convergence on RMS density matrix=1.00D-08 within 128 cycles.
 Requested convergence on MAX density matrix=1.00D-06.
 Requested convergence on             energy=1.00D-06.
 No special actions if energy rises.
 SCF Done:  E(RHF) =  -666.558653792     A.U. after   10 cycles
             Convg  =    0.6108D-08             -V/T =  2.0000
             S**2   =   0.0000
 ExpMin= 3.60D-02 ExpMax= 2.52D+04 ExpMxC= 3.78D+03 IAcc=3 IRadAn=         5 AccDes= 0.00D+00
 HarFok:  IExCor= 205 AccDes= 0.00D+00 IRadAn=         5 IDoV=1
 ScaDFX=  1.000000  1.000000  1.000000  1.000000
 Range of M.O.s used for correlation:     9   188
 NBasis=   188 NAE=    22 NBE=    22 NFC=     8 NFV=     0
 NROrb=    180 NOA=    14 NOB=    14 NVA=   166 NVB=   166

 **** Warning!!: The largest alpha MO coefficient is  0.47860055D+02

 Semi-Direct transformation.
 ModeAB=           4 MOrb=            14 LenV=      15916770
 LASXX=      3480434 LTotXX=     3480434 LenRXX=     7096969
 LTotAB=     3616535 MaxLAS=    33301800 LenRXY=           0
 NonZer=    10577403 LenScr=    16614400 LnRSAI=    33301800
 LnScr1=    52279296 LExtra=           0 Total=    109292465
 MaxDsk=          -1 SrtSym=           T ITran=            3
 JobTyp=0 Pass  1:  I=   1 to  14.
 Spin components of T(2) and E(2):
     alpha-alpha T2 =       0.2637556472D-01 E2=     -0.8741268590D-01
     alpha-beta  T2 =       0.1515792993D+00 E2=     -0.5274853472D+00
     beta-beta   T2 =       0.2637556472D-01 E2=     -0.8741268590D-01
 ANorm=    0.1097419896D+01
 E2=       -0.7023107190D+00 EUMP2=       -0.66726096451119D+03
 Would need an additional   302247027 words for in-memory AO integral storage.
 DD1Dir will call FoFDir   1 times, MxPair=       210
 NAB=   105 NAA=     0 NBB=     0 NumPrc=  1.
 Petite list used in FoFDir.
 MinBra= 0 MaxBra= 2 Meth= 1.
 IRaf=       0 NMat= 210 IRICut=     210 DoRegI=T DoRafI=T ISym2E=-1 JSym2E=1.
 E3=       -0.36848268D-01        EUMP3=      -0.66729781278D+03
 Largest amplitude= 3.39D-02
 Variable Step   Value    
 -------- ---- -----------
     1       5    3.779452
 ------------------------------------------------------------------------
                         Z-MATRIX (ANGSTROMS AND DEGREES)
 CD Cent Atom  N1     Length/X     N2    Alpha/Y     N3     Beta/Z      J
 ------------------------------------------------------------------------
   1   1  C     0   0.000000          0.822370          0.000000
   2   2  Cl    0   0.825357         -0.789016          0.000000
   3   3  H     0   0.356564          1.347568          0.896000
   4   4  H     0   0.356564          1.347568         -0.896000
   5   5  C     0  -1.511627          0.654420          0.000000
   6   6  H     0  -1.990226          1.647724          0.000000
   7   7  H     0  -1.842105          0.104833         -0.893316
   8   8  H     0  -1.842105          0.104833          0.893316
   9      X     2   1.000000(  8)   1   90.000( 16)   5    0.000( 23)   0
  10   9  Ne    2   2.000000(  9)   9   90.000( 17)   1  180.000( 24)   0
 ------------------------------------------------------------------------
                         Z-Matrix orientation:                         
 ---------------------------------------------------------------------
 Center     Atomic     Atomic              Coordinates (Angstroms)
 Number     Number      Type              X           Y           Z
 ---------------------------------------------------------------------
    1          6             0        0.000000    0.822370    0.000000
    2         17             0        0.825357   -0.789016    0.000000
    3          1             0        0.356564    1.347568    0.896000
    4          1             0        0.356564    1.347568   -0.896000
    5          6             0       -1.511627    0.654420    0.000000
    6          1             0       -1.990226    1.647724    0.000000
    7          1             0       -1.842105    0.104833   -0.893316
    8          1             0       -1.842105    0.104833    0.893316
    9         -1             0       -0.064683   -1.244898    0.000000
   10         10             0        1.737120   -2.569097    0.000000
 ---------------------------------------------------------------------
                    Distance matrix (angstroms):
                    1          2          3          4          5
     1  C    0.000000
     2  Cl   1.810464   0.000000
     3  H    1.098083   2.363805   0.000000
     4  H    1.098083   2.363805   1.792000   0.000000
     5  C    1.520928   2.746817   2.184813   2.184813   0.000000
     6  H    2.154579   3.723602   2.529888   2.529888   1.102592
     7  H    2.169383   2.951666   3.095188   2.525578   1.099670
     8  H    2.169383   2.951666   2.525578   3.095188   1.099670
     9  X    2.068279   1.000000   2.775093   2.775093   2.387688
    10  Ne   3.810464   2.000000   4.248413   4.248413   4.576617
                    6          7          8          9         10
     6  H    0.000000
     7  H    1.788985   0.000000
     8  H    1.788985   1.786632   0.000000
     9  X    3.474906   2.403958   2.403958   0.000000
    10  Ne   5.628027   4.556179   4.556179   2.236068   0.000000
                           Interatomic angles:
      Cl2-C1-H3=106.1207      Cl2-C1-H4=106.1207       H3-C1-H4=109.3662
      Cl2-H3-H4= 67.7252      Cl2-C1-C5=110.7818       H3-C1-C5=112.058 
      Cl2-H3-C5= 74.1792       H4-C1-C5=112.058       Cl2-H4-C5= 74.1792
       H4-H3-C5= 65.7886      Cl2-C1-H6=139.6456       H3-C1-H6= 96.7033
      Cl2-H3-H6= 99.0305       H4-C1-H6= 96.7033      Cl2-H4-H6= 99.0305
       H4-H3-H6= 69.2577       C1-C5-H6=109.3861      Cl2-C5-H6=147.4275
       H3-C5-H6= 94.8962       H4-C5-H6= 94.8962      Cl2-C1-H7= 95.3201
       H3-C1-H7=140.3472      H3-Cl2-H7= 70.2312       H4-C1-H7= 95.6195
      Cl2-H4-H7= 74.1862       H3-H4-H7= 89.9391       C1-C5-H7=110.7245
      Cl2-C5-H7= 89.6022       H3-C5-H7=138.4759       H4-C5-H7= 94.7255
       C1-H6-H7= 65.9926      Cl2-H7-H6=100.6536       H3-H6-H7= 89.8695
       H4-H7-H6= 69.4049       H6-C5-H7=108.6502      Cl2-C1-H8= 95.3201
       H3-C1-H8= 95.6195      Cl2-H3-H8= 74.1862       H4-C1-H8=140.3472
      H4-Cl2-H8= 70.2312       H4-H3-H8= 89.9391       C1-C5-H8=110.7245
      Cl2-C5-H8= 89.6022       H3-C5-H8= 94.7255       H4-C5-H8=138.4759
       C1-H6-H8= 65.9926      Cl2-H8-H6=100.6536       H3-H8-H6= 69.4049
       H4-H6-H8= 89.8695       H6-C5-H8=108.6502       C1-H7-H8= 65.6831
      Cl2-H7-H8= 72.3833       H3-H8-H7= 90.0609       H4-H7-H8= 90.0609
       H7-C5-H8=108.6521       H6-H7-H8= 60.0435      C1-Cl2-X9= 90.    
       H3-C1-X9=119.2228      H3-Cl2-X9=103.6238       H4-C1-X9=119.2228
      H4-Cl2-X9=103.6238       H4-H3-X9= 71.1633       C5-C1-X9= 81.868 
      Cl2-X9-C5=100.1793       H3-C5-X9= 74.5847       H4-C5-X9= 74.5847
       H6-C1-X9=110.7318       H6-H3-X9= 81.7019       H6-H4-X9= 81.7019
       H6-C5-X9=168.425        H7-C1-X9= 69.0747      Cl2-X9-H7=113.7103
       H3-X9-H7= 73.0044       H4-H7-X9= 68.4692       H7-C5-X9= 77.559 
       H6-H7-X9=111.0933       H8-C1-X9= 69.0747      Cl2-X9-H8=113.7103
       H3-H8-X9= 68.4692       H4-X9-H8= 73.0044       H8-C5-X9= 77.559 
       H6-H8-X9=111.0933       H8-H7-X9= 68.1855    C1-Cl2-Ne10=180.    
    H3-Cl2-Ne10=153.4951    H4-Cl2-Ne10=153.4951    C5-Cl2-Ne10=148.8232
    H7-Cl2-Ne10=132.9622    H8-Cl2-Ne10=132.9622     C1-X9-Ne10=124.5211
    X9-Cl2-Ne10= 90.         H3-X9-Ne10=115.5254     H4-X9-Ne10=115.5254
     C5-X9-Ne10=163.6143     H7-X9-Ne10=158.1679     H8-X9-Ne10=158.1679
 Stoichiometry    C2H5ClNe
 Framework group  CS[SG(C2HClNe),X(H4)]
 Deg. of freedom    13
 Full point group                 CS
 Largest Abelian subgroup         CS      NOp   2
 Largest concise Abelian subgroup CS      NOp   2
                         Standard orientation:                         
 ---------------------------------------------------------------------
 Center     Atomic     Atomic              Coordinates (Angstroms)
 Number     Number      Type              X           Y           Z
 ---------------------------------------------------------------------
    1          6             0       -0.289698   -1.431607    0.000000
    2         17             0       -0.289698    0.378857    0.000000
    3          1             0       -0.846483   -1.736503    0.896000
    4          1             0       -0.846483   -1.736503   -0.896000
    5          6             0        1.132276   -1.971247    0.000000
    6          1             0        1.105420   -3.073512    0.000000
    7          1             0        1.676962   -1.632751   -0.893316
    8          1             0        1.676962   -1.632751    0.893316
    9         10             0       -0.289698    2.378857    0.000000
 ---------------------------------------------------------------------
 Rotational constants (GHZ):     23.1611243      2.2661344      2.1200526
 Standard basis: 6-31++G(3d,3p) (6D, 7F)
 There are   124 symmetry adapted basis functions of A'  symmetry.
 There are    64 symmetry adapted basis functions of A"  symmetry.
 Integral buffers will be    131072 words long.
 Raffenetti 1 integral format.
 Two-electron integral symmetry is turned on.
   188 basis functions,   270 primitive gaussians,   188 cartesian basis functions
    22 alpha electrons       22 beta electrons
       nuclear repulsion energy       168.2235318846 Hartrees.
 NAtoms=    9 NActive=    9 NUniq=    7 SFac= 1.24D+00 NAtFMM=   80 NAOKFM=F Big=F
 One-electron integrals computed using PRISM.
 NBasis=   188 RedAO= T  NBF=   124    64
 NBsUse=   188 1.00D-06 NBFU=   124    64
 Initial guess read from the read-write file:
 Initial guess orbital symmetries:
       Occupied  (A') (A') (A') (A') (A') (A') (A") (A') (A') (A')
                 (A') (A') (A") (A') (A') (A") (A') (A') (A") (A')
                 (A') (A")
       Virtual   (A') (A') (A") (A') (A") (A') (A') (A') (A") (A')
                 (A') (A") (A') (A') (A') (A") (A') (A') (A") (A")
                 (A') (A') (A') (A') (A") (A') (A') (A") (A') (A")
                 (A') (A') (A') (A") (A') (A") (A') (A') (A") (A')
                 (A") (A') (A") (A') (A") (A') (A') (A") (A") (A')
                 (A') (A') (A") (A') (A") (A') (A') (A") (A') (A')
                 (A') (A') (A') (A") (A") (A') (A') (A') (A") (A')
                 (A") (A") (A') (A') (A") (A') (A") (A') (A') (A')
                 (A') (A") (A') (A') (A') (A") (A') (A") (A') (A')
                 (A") (A') (A') (A") (A') (A") (A') (A") (A') (A")
                 (A') (A") (A') (A') (A") (A') (A") (A") (A') (A')
                 (A") (A') (A') (A') (A") (A') (A') (A') (A') (A")
                 (A') (A") (A') (A') (A") (A') (A") (A') (A') (A')
                 (A') (A") (A') (A") (A') (A') (A') (A") (A') (A")
                 (A') (A') (A") (A') (A') (A") (A") (A") (A") (A')
                 (A") (A') (A') (A') (A") (A') (A') (A') (A") (A')
                 (A") (A') (A') (A') (A') (A')
 Harris functional with IExCor=  205 diagonalized for initial guess.
 ExpMin= 3.60D-02 ExpMax= 2.52D+04 ExpMxC= 3.78D+03 IAcc=3 IRadAn=         5 AccDes= 0.00D+00
 HarFok:  IExCor= 205 AccDes= 0.00D+00 IRadAn=         5 IDoV=1
 ScaDFX=  1.000000  1.000000  1.000000  1.000000
 Requested convergence on RMS density matrix=1.00D-08 within 128 cycles.
 Requested convergence on MAX density matrix=1.00D-06.
 Requested convergence on             energy=1.00D-06.
 No special actions if energy rises.
 SCF Done:  E(RHF) =  -666.582016322     A.U. after   10 cycles
             Convg  =    0.4768D-08             -V/T =  2.0002
             S**2   =   0.0000
 ExpMin= 3.60D-02 ExpMax= 2.52D+04 ExpMxC= 3.78D+03 IAcc=3 IRadAn=         5 AccDes= 0.00D+00
 HarFok:  IExCor= 205 AccDes= 0.00D+00 IRadAn=         5 IDoV=1
 ScaDFX=  1.000000  1.000000  1.000000  1.000000
 Range of M.O.s used for correlation:     9   188
 NBasis=   188 NAE=    22 NBE=    22 NFC=     8 NFV=     0
 NROrb=    180 NOA=    14 NOB=    14 NVA=   166 NVB=   166

 **** Warning!!: The largest alpha MO coefficient is  0.47615045D+02

 Semi-Direct transformation.
 ModeAB=           4 MOrb=            14 LenV=      15917263
 LASXX=      3480434 LTotXX=     3480434 LenRXX=     7096969
 LTotAB=     3616535 MaxLAS=    33044760 LenRXY=           0
 NonZer=    10577403 LenScr=    16614400 LnRSAI=    33044760
 LnScr1=    51870720 LExtra=           0 Total=    108626849
 MaxDsk=          -1 SrtSym=           T ITran=            3
 JobTyp=0 Pass  1:  I=   1 to  14.
 Spin components of T(2) and E(2):
     alpha-alpha T2 =       0.2632962678D-01 E2=     -0.8710138490D-01
     alpha-beta  T2 =       0.1515774653D+00 E2=     -0.5269145499D+00
     beta-beta   T2 =       0.2632962678D-01 E2=     -0.8710138490D-01
 ANorm=    0.1097377200D+01
 E2=       -0.7011173197D+00 EUMP2=       -0.66728313364205D+03
 Would need an additional   302247027 words for in-memory AO integral storage.
 DD1Dir will call FoFDir   1 times, MxPair=       210
[...]
                 (A') (A') (A") (A') (A') (A") (A') (A") (A') (A')
                 (A") (A') (A') (A") (A') (A") (A') (A") (A') (A')
                 (A') (A") (A') (A') (A') (A") (A') (A') (A") (A')
                 (A') (A") (A') (A') (A") (A') (A") (A") (A') (A')
                 (A') (A") (A") (A') (A') (A") (A") (A") (A') (A')
                 (A") (A') (A') (A') (A") (A') (A') (A') (A') (A')
                 (A") (A') (A") (A') (A") (A') (A") (A') (A') (A')
                 (A') (A') (A") (A") (A') (A') (A') (A") (A') (A")
                 (A') (A') (A") (A') (A') (A") (A") (A") (A") (A')
                 (A') (A") (A') (A') (A") (A') (A') (A') (A") (A')
                 (A") (A') (A') (A') (A') (A')
 Harris functional with IExCor=  205 diagonalized for initial guess.
 ExpMin= 3.60D-02 ExpMax= 2.52D+04 ExpMxC= 3.78D+03 IAcc=3 IRadAn=         5 AccDes= 0.00D+00
 HarFok:  IExCor= 205 AccDes= 0.00D+00 IRadAn=         5 IDoV=1
 ScaDFX=  1.000000  1.000000  1.000000  1.000000
 Requested convergence on RMS density matrix=1.00D-08 within 128 cycles.
 Requested convergence on MAX density matrix=1.00D-06.
 Requested convergence on             energy=1.00D-06.
 No special actions if energy rises.
 SCF Done:  E(RHF) =  -666.634801862     A.U. after    5 cycles
             Convg  =    0.9173D-08             -V/T =  2.0008
             S**2   =   0.0000
 ExpMin= 3.60D-02 ExpMax= 2.52D+04 ExpMxC= 3.78D+03 IAcc=3 IRadAn=         5 AccDes= 0.00D+00
 HarFok:  IExCor= 205 AccDes= 0.00D+00 IRadAn=         5 IDoV=1
 ScaDFX=  1.000000  1.000000  1.000000  1.000000
 Range of M.O.s used for correlation:     9   188
 NBasis=   188 NAE=    22 NBE=    22 NFC=     8 NFV=     0
 NROrb=    180 NOA=    14 NOB=    14 NVA=   166 NVB=   166

 **** Warning!!: The largest alpha MO coefficient is  0.35809121D+02

 Semi-Direct transformation.
 ModeAB=           4 MOrb=            14 LenV=      15928470
 LASXX=      3480434 LTotXX=     3480434 LenRXX=     7096969
 LTotAB=     3616535 MaxLAS=    28284480 LenRXY=           0
 NonZer=    10577403 LenScr=    16614400 LnRSAI=    28284480
 LnScr1=    44768256 LExtra=           0 Total=     96764105
 MaxDsk=          -1 SrtSym=           T ITran=            3
 JobTyp=0 Pass  1:  I=   1 to  14.
 Spin components of T(2) and E(2):
     alpha-alpha T2 =       0.2609369177D-01 E2=     -0.8566830889D-01
     alpha-beta  T2 =       0.1514322379D+00 E2=     -0.5235388506D+00
     beta-beta   T2 =       0.2609369177D-01 E2=     -0.8566830889D-01
 ANorm=    0.1097095995D+01
 E2=       -0.6948754684D+00 EUMP2=       -0.66732967733043D+03
 Would need an additional   302247027 words for in-memory AO integral storage.
 DD1Dir will call FoFDir   1 times, MxPair=       210
 NAB=   105 NAA=     0 NBB=     0 NumPrc=  1.
 Petite list used in FoFDir.
 MinBra= 0 MaxBra= 2 Meth= 1.
 IRaf=       0 NMat= 210 IRICut=     210 DoRegI=T DoRafI=T ISym2E=-1 JSym2E=1.
 E3=       -0.38006392D-01        EUMP3=      -0.66736768372D+03
 Largest amplitude= 3.02D-02
 Variable Step   Value    
 -------- ---- -----------
     1      45   11.338357
 ------------------------------------------------------------------------
                         Z-MATRIX (ANGSTROMS AND DEGREES)
 CD Cent Atom  N1     Length/X     N2    Alpha/Y     N3     Beta/Z      J
 ------------------------------------------------------------------------
   1   1  C     0   0.000000          0.822370          0.000000
   2   2  Cl    0   0.825357         -0.789016          0.000000
   3   3  H     0   0.356564          1.347568          0.896000
   4   4  H     0   0.356564          1.347568         -0.896000
   5   5  C     0  -1.511627          0.654420          0.000000
   6   6  H     0  -1.990226          1.647724          0.000000
   7   7  H     0  -1.842105          0.104833         -0.893316
   8   8  H     0  -1.842105          0.104833          0.893316
   9      X     2   1.000000(  8)   1   90.000( 16)   5    0.000( 23)   0
  10   9  Ne    2   6.000000(  9)   9   90.000( 17)   1  180.000( 24)   0
 ------------------------------------------------------------------------
                         Z-Matrix orientation:                         
 ---------------------------------------------------------------------
 Center     Atomic     Atomic              Coordinates (Angstroms)
 Number     Number      Type              X           Y           Z
 ---------------------------------------------------------------------
    1          6             0        0.000000    0.822370    0.000000
    2         17             0        0.825357   -0.789016    0.000000
    3          1             0        0.356564    1.347568    0.896000
    4          1             0        0.356564    1.347568   -0.896000
    5          6             0       -1.511627    0.654420    0.000000
    6          1             0       -1.990226    1.647724    0.000000
    7          1             0       -1.842105    0.104833   -0.893316
    8          1             0       -1.842105    0.104833    0.893316
    9         -1             0       -0.064683   -1.244898    0.000000
   10         10             0        3.560646   -6.129259    0.000000
 ---------------------------------------------------------------------
                    Distance matrix (angstroms):
                    1          2          3          4          5
     1  C    0.000000
     2  Cl   1.810464   0.000000
     3  H    1.098083   2.363805   0.000000
     4  H    1.098083   2.363805   1.792000   0.000000
     5  C    1.520928   2.746817   2.184813   2.184813   0.000000
     6  H    2.154579   3.723602   2.529888   2.529888   1.102592
     7  H    2.169383   2.951666   3.095188   2.525578   1.099670
     8  H    2.169383   2.951666   2.525578   3.095188   1.099670
     9  X    2.068279   1.000000   2.775093   2.775093   2.387688
    10  Ne   7.810464   6.000000   8.183636   8.183636   8.470316
                    6          7          8          9         10
     6  H    0.000000
     7  H    1.788985   0.000000
     8  H    1.788985   1.786632   0.000000
     9  X    3.474906   2.403958   2.403958   0.000000
    10  Ne   9.554771   8.297689   8.297689   6.082763   0.000000
                           Interatomic angles:
      Cl2-C1-H3=106.1207      Cl2-C1-H4=106.1207       H3-C1-H4=109.3662
      Cl2-H3-H4= 67.7252      Cl2-C1-C5=110.7818       H3-C1-C5=112.058 
      Cl2-H3-C5= 74.1792       H4-C1-C5=112.058       Cl2-H4-C5= 74.1792
       H4-H3-C5= 65.7886      Cl2-C1-H6=139.6456       H3-C1-H6= 96.7033
      Cl2-H3-H6= 99.0305       H4-C1-H6= 96.7033      Cl2-H4-H6= 99.0305
       H4-H3-H6= 69.2577       C1-C5-H6=109.3861      Cl2-C5-H6=147.4275
       H3-C5-H6= 94.8962       H4-C5-H6= 94.8962      Cl2-C1-H7= 95.3201
       H3-C1-H7=140.3472      H3-Cl2-H7= 70.2312       H4-C1-H7= 95.6195
      Cl2-H4-H7= 74.1862       H3-H4-H7= 89.9391       C1-C5-H7=110.7245
      Cl2-C5-H7= 89.6022       H3-C5-H7=138.4759       H4-C5-H7= 94.7255
       C1-H6-H7= 65.9926      Cl2-H7-H6=100.6536       H3-H6-H7= 89.8695
       H4-H7-H6= 69.4049       H6-C5-H7=108.6502      Cl2-C1-H8= 95.3201
       H3-C1-H8= 95.6195      Cl2-H3-H8= 74.1862       H4-C1-H8=140.3472
      H4-Cl2-H8= 70.2312       H4-H3-H8= 89.9391       C1-C5-H8=110.7245
      Cl2-C5-H8= 89.6022       H3-C5-H8= 94.7255       H4-C5-H8=138.4759
       C1-H6-H8= 65.9926      Cl2-H8-H6=100.6536       H3-H8-H6= 69.4049
       H4-H6-H8= 89.8695       H6-C5-H8=108.6502       C1-H7-H8= 65.6831
      Cl2-H7-H8= 72.3833       H3-H8-H7= 90.0609       H4-H7-H8= 90.0609
       H7-C5-H8=108.6521       H6-H7-H8= 60.0435      C1-Cl2-X9= 90.    
       H3-C1-X9=119.2228      H3-Cl2-X9=103.6238       H4-C1-X9=119.2228
      H4-Cl2-X9=103.6238       H4-H3-X9= 71.1633       C5-C1-X9= 81.868 
      Cl2-X9-C5=100.1793       H3-C5-X9= 74.5847       H4-C5-X9= 74.5847
       H6-C1-X9=110.7318       H6-H3-X9= 81.7019       H6-H4-X9= 81.7019
       H6-C5-X9=168.425        H7-C1-X9= 69.0747      Cl2-X9-H7=113.7103
       H3-X9-H7= 73.0044       H4-H7-X9= 68.4692       H7-C5-X9= 77.559 
       H6-H7-X9=111.0933       H8-C1-X9= 69.0747      Cl2-X9-H8=113.7103
       H3-H8-X9= 68.4692       H4-X9-H8= 73.0044       H8-C5-X9= 77.559 
       H6-H8-X9=111.0933       H8-H7-X9= 68.1855
 Stoichiometry    C2H5ClNe
 Framework group  CS[SG(C2HClNe),X(H4)]
 Deg. of freedom    13
 Full point group                 CS
 Largest Abelian subgroup         CS      NOp   2
 Largest concise Abelian subgroup CS      NOp   2
                         Standard orientation:                         
 ---------------------------------------------------------------------
 Center     Atomic     Atomic              Coordinates (Angstroms)
 Number     Number      Type              X           Y           Z
 ---------------------------------------------------------------------
    1          6             0       -0.289698   -2.340698    0.000000
    2         17             0       -0.289698   -0.530234    0.000000
    3          1             0       -0.846483   -2.645594    0.896000
    4          1             0       -0.846483   -2.645594   -0.896000
    5          6             0        1.132276   -2.880338    0.000000
    6          1             0        1.105420   -3.982603    0.000000
    7          1             0        1.676962   -2.541842   -0.893316
    8          1             0        1.676962   -2.541842    0.893316
    9         10             0       -0.289698    5.469766    0.000000
 ---------------------------------------------------------------------
 Rotational constants (GHZ):     18.6719469      0.6142286      0.5992167
 Standard basis: 6-31++G(3d,3p) (6D, 7F)
 There are   124 symmetry adapted basis functions of A'  symmetry.
 There are    64 symmetry adapted basis functions of A"  symmetry.
 Integral buffers will be    131072 words long.
 Raffenetti 1 integral format.
 Two-electron integral symmetry is turned on.
   188 basis functions,   270 primitive gaussians,   188 cartesian basis functions
    22 alpha electrons       22 beta electrons
       nuclear repulsion energy       128.1486053636 Hartrees.
 NAtoms=    9 NActive=    9 NUniq=    7 SFac= 1.24D+00 NAtFMM=   80 NAOKFM=F Big=F
 One-electron integrals computed using PRISM.
 NBasis=   188 RedAO= T  NBF=   124    64
 NBsUse=   188 1.00D-06 NBFU=   124    64
 Initial guess read from the read-write file:
 Initial guess orbital symmetries:
       Occupied  (A') (A') (A') (A') (A') (A') (A") (A') (A') (A')
                 (A') (A') (A") (A') (A') (A") (A') (A') (A") (A')
                 (A') (A")
       Virtual   (A') (A') (A") (A') (A") (A') (A') (A') (A") (A')
                 (A') (A") (A') (A') (A') (A") (A') (A') (A') (A")
                 (A") (A') (A") (A') (A') (A') (A') (A") (A') (A')
                 (A") (A') (A') (A') (A") (A') (A") (A') (A") (A')
                 (A") (A') (A') (A') (A") (A") (A') (A') (A") (A')
                 (A') (A") (A") (A') (A') (A') (A") (A') (A") (A')
                 (A') (A') (A") (A') (A') (A") (A') (A") (A') (A')
                 (A") (A') (A') (A") (A') (A") (A') (A") (A') (A')
                 (A') (A") (A') (A') (A') (A") (A') (A') (A") (A')
                 (A') (A") (A') (A') (A") (A') (A") (A") (A') (A')
                 (A') (A") (A") (A') (A') (A") (A") (A") (A') (A')
                 (A") (A') (A') (A') (A") (A') (A') (A') (A') (A')
                 (A") (A') (A") (A') (A") (A') (A") (A') (A') (A')
                 (A') (A') (A") (A") (A') (A') (A') (A") (A') (A")
                 (A') (A') (A") (A') (A') (A") (A") (A") (A") (A')
                 (A') (A") (A') (A') (A") (A') (A') (A') (A") (A')
                 (A") (A') (A') (A') (A') (A')
 Harris functional with IExCor=  205 diagonalized for initial guess.
 ExpMin= 3.60D-02 ExpMax= 2.52D+04 ExpMxC= 3.78D+03 IAcc=3 IRadAn=         5 AccDes= 0.00D+00
 HarFok:  IExCor= 205 AccDes= 0.00D+00 IRadAn=         5 IDoV=1
 ScaDFX=  1.000000  1.000000  1.000000  1.000000
 Requested convergence on RMS density matrix=1.00D-08 within 128 cycles.
 Requested convergence on MAX density matrix=1.00D-06.
 Requested convergence on             energy=1.00D-06.
 No special actions if energy rises.
 SCF Done:  E(RHF) =  -666.634794851     A.U. after    5 cycles
             Convg  =    0.8163D-08             -V/T =  2.0008
             S**2   =   0.0000
 ExpMin= 3.60D-02 ExpMax= 2.52D+04 ExpMxC= 3.78D+03 IAcc=3 IRadAn=         5 AccDes= 0.00D+00
 HarFok:  IExCor= 205 AccDes= 0.00D+00 IRadAn=         5 IDoV=1
 ScaDFX=  1.000000  1.000000  1.000000  1.000000
 Range of M.O.s used for correlation:     9   188
 NBasis=   188 NAE=    22 NBE=    22 NFC=     8 NFV=     0
 NROrb=    180 NOA=    14 NOB=    14 NVA=   166 NVB=   166

 **** Warning!!: The largest alpha MO coefficient is  0.35788204D+02

 Semi-Direct transformation.
 ModeAB=           4 MOrb=            14 LenV=      15928701
 LASXX=      3480434 LTotXX=     3480434 LenRXX=     7096969
 LTotAB=     3616535 MaxLAS=    28208880 LenRXY=           0
 NonZer=    10577403 LenScr=    16614400 LnRSAI=    28208880
 LnScr1=    44651520 LExtra=           0 Total=     96571769
 MaxDsk=          -1 SrtSym=           T ITran=            3
 JobTyp=0 Pass  1:  I=   1 to  14.
 Spin components of T(2) and E(2):
     alpha-alpha T2 =       0.2609352119D-01 E2=     -0.8566766589D-01
     alpha-beta  T2 =       0.1514318090D+00 E2=     -0.5235350333D+00
     beta-beta   T2 =       0.2609352119D-01 E2=     -0.8566766589D-01
 ANorm=    0.1097095644D+01
 E2=       -0.6948703650D+00 EUMP2=       -0.66732966521570D+03
 Would need an additional   302247027 words for in-memory AO integral storage.
 DD1Dir will call FoFDir   1 times, MxPair=       210
 NAB=   105 NAA=     0 NBB=     0 NumPrc=  1.
 Petite list used in FoFDir.
 MinBra= 0 MaxBra= 2 Meth= 1.
 IRaf=       0 NMat= 210 IRICut=     210 DoRegI=T DoRafI=T ISym2E=-1 JSym2E=1.
 E3=       -0.38006391D-01        EUMP3=      -0.66736767161D+03
 Largest amplitude= 3.02D-02
 Scan completed.

 Summary of the potential surface scan:
   N      roh         SCF          MP2          MP3    
 ----  ---------  -----------  -----------  -----------
    1     1.5000   -666.33556   -667.04374   -667.07805
    2     1.6000   -666.41868   -667.12584   -667.16082
    3     1.7000   -666.48054   -667.18605   -667.22175
    4     1.8000   -666.52589   -667.22969   -667.26603
    5     1.9000   -666.55865   -667.26096   -667.29781
    6     2.0000   -666.58202   -667.28313   -667.32036
    7     2.1000   -666.59848   -667.29866   -667.33615
    8     2.2000   -666.60998   -667.30939   -667.34706
    9     2.3000   -666.61794   -667.31671   -667.35450
   10     2.4000   -666.62342   -667.32164   -667.35951
   11     2.5000   -666.62718   -667.32493   -667.36285
   12     2.6000   -666.62975   -667.32710   -667.36505
   13     2.7000   -666.63152   -667.32851   -667.36648
   14     2.8000   -666.63272   -667.32941   -667.36740
   15     2.9000   -666.63354   -667.32997   -667.36797
   16     3.0000   -666.63409   -667.33030   -667.36830
   17     3.1000   -666.63445   -667.33047   -667.36847
   18     3.2000   -666.63468   -667.33053   -667.36854
   19     3.3000   -666.63483   -667.33054   -667.36854
   20     3.4000   -666.63491   -667.33050   -667.36850
   21     3.5000   -666.63496   -667.33044   -667.36844
   22     3.6000   -666.63499   -667.33038   -667.36838
   23     3.7000   -666.63500   -667.33031   -667.36831
   24     3.8000   -666.63500   -667.33025   -667.36825
   25     3.9000   -666.63500   -667.33019   -667.36819
   26     4.0000   -666.63500   -667.33014   -667.36815
   27     4.1000   -666.63499   -667.33010   -667.36810
   28     4.2000   -666.63498   -667.33006   -667.36807
   29     4.3000   -666.63497   -667.33003   -667.36804
   30     4.4000   -666.63496   -667.33000   -667.36801
   31     4.5000   -666.63495   -667.32997   -667.36798
   32     4.6000   -666.63494   -667.32994   -667.36795
   33     4.7000   -666.63493   -667.32992   -667.36792
   34     4.8000   -666.63491   -667.32989   -667.36790
   35     4.9000   -666.63490   -667.32987   -667.36787
   36     5.0000   -666.63489   -667.32984   -667.36785
   37     5.1000   -666.63488   -667.32982   -667.36783
   38     5.2000   -666.63487   -667.32980   -667.36780
   39     5.3000   -666.63486   -667.32978   -667.36778
   40     5.4000   -666.63485   -667.32976   -667.36776
   41     5.5000   -666.63484   -667.32974   -667.36775
   42     5.6000   -666.63483   -667.32972   -667.36773
   43     5.7000   -666.63482   -667.32971   -667.36771
   44     5.8000   -666.63481   -667.32969   -667.36770
   45     5.9000   -666.63480   -667.32968   -667.36768
   46     6.0000   -666.63479   -667.32967   -667.36767
 ----  ---------  -----------  -----------  -----------
  
 1\1\GINC-N088\Scan\RMP3-FC\6-31++G(3d,3p)\C2H5Cl1Ne1\FYLIN\05-May-2016
 \1\\#MP3/6-31++G(3d,3p) scan\\C1H...Ne 0.0 degrees\\0,1\C,0,0.,0.82237
 ,0.\Cl,0,0.825357,-0.789016,0.\H,0,0.356564,1.347568,0.896\H,0,0.35656
 4,1.347568,-0.896\C,0,-1.511627,0.65442,0.\H,0,-1.990226,1.647724,0.\H
 ,0,-1.842105,0.104833,-0.893316\H,0,-1.842105,0.104833,0.893316\X,2,1.
 ,1,90.,5,0.,0\Ne,2,roh,9,90.,1,180.,0\\roh=1.5,s,45,0.1\\Version=AM64L
 -G03RevD.02\HF=-666.3355582,-666.4186838,-666.4805382,-666.5258878,-66
 6.5586538,-666.5820163,-666.5984834,-666.6099789,-666.6179398,-666.623
 4191,-666.6271772,-666.6297525,-666.631517,-666.632723,-666.6335413,-6
 66.6340894,-666.6344499,-666.6346814,-666.6348259,-666.6349126,-666.63
 4962,-666.6349881,-666.635,-666.6350034,-666.6350019,-666.6349973,-666
 .6349906,-666.6349823,-666.6349727,-666.6349619,-666.6349504,-666.6349
 383,-666.634926,-666.6349136,-666.6349014,-666.6348894,-666.6348778,-6
 66.6348666,-666.6348558,-666.6348455,-666.6348357,-666.6348264,-666.63
 48177,-666.6348095,-666.6348019,-666.6347949\MP2=-667.0437386,-667.125
 8409,-667.186053,-667.2296894,-667.2609645,-667.2831336,-667.2986586,-
 667.3093893,-667.3167092,-667.3216408,-667.3249275,-667.327096,-667.32
 85098,-667.3294139,-667.3299729,-667.3302985,-667.3304679,-667.3305348
 ,-667.3305369,-667.3305004,-667.3304434,-667.3303779,-667.3303118,-667
 .3302496,-667.3301937,-667.3301445,-667.3301018,-667.3300643,-667.3300
 309,-667.3300004,-667.3299718,-667.3299445,-667.329918,-667.3298923,-6
 67.3298673,-667.3298432,-667.32982,-667.3297979,-667.3297768,-667.3297
 57,-667.3297385,-667.3297213,-667.3297053,-667.3296907,-667.3296773,-6
 67.3296652\MP3=-667.0780481,-667.1608166,-667.2217513,-667.2660301,-66
 7.2978128,-667.320356,-667.3361455,-667.347058,-667.3544995,-667.35951
 06,-667.3628479,-667.3650483,-667.3664821,-667.3673988,-667.3679658,-6
 67.3682963,-667.3684684,-667.3685366,-667.368539,-667.3685023,-667.368
 4447,-667.3683788,-667.3683124,-667.3682502,-667.3681946,-667.3681462,
 -667.3681043,-667.3680679,-667.3680355,-667.3680058,-667.3679778,-667.
 3679509,-667.3679248,-667.3678992,-667.3678743,-667.3678501,-667.36782
 69,-667.3678046,-667.3677835,-667.3677636,-667.367745,-667.3677277,-66
 7.3677118,-667.3676971,-667.3676837,-667.3676716\RMSD=4.184e-09,3.359e
 -09,9.763e-09,3.535e-09,6.108e-09,4.768e-09,3.576e-09,7.463e-09,5.963e
 -09,4.657e-09,8.941e-09,8.211e-09,7.698e-09,6.938e-09,6.283e-09,5.635e
 -09,4.946e-09,4.225e-09,3.490e-09,9.812e-09,6.431e-09,7.378e-09,5.567e
 -09,4.952e-09,4.937e-09,5.059e-09,5.140e-09,5.145e-09,5.077e-09,4.946e
 -09,4.782e-09,4.596e-09,4.394e-09,4.181e-09,3.960e-09,3.732e-09,3.496e
 -09,3.257e-09,3.015e-09,2.774e-09,2.537e-09,2.307e-09,2.087e-09,1.878e
 -09,9.173e-09,8.163e-09\Thermal=0.,0.,0.,0.,0.,0.,0.,0.,0.,0.,0.,0.,0.
 ,0.,0.,0.,0.,0.,0.,0.,0.,0.,0.,0.,0.,0.,0.,0.,0.,0.,0.,0.,0.,0.,0.,0.,
 0.,0.,0.,0.,0.,0.,0.,0.,0.,0.\PG=CS [SG(C2H1Cl1Ne1),X(H4)]\\@


 Happiness is a conscious choice, not an automatic response.
 -- Mildred Barthel
 Job cpu time:  0 days  1 hours 30 minutes 37.9 seconds.
 File lengths (MBytes):  RWF=    920 Int=      0 D2E=      0 Chk=     19 Scr=      1
 Normal termination of Gaussian 03 at Thu May  5 18:16:47 2016.
