 Entering Gaussian System, Link 0=g03
 Initial command:
 /opt/mackerell/apps/gaussian/g03/l1.exe /tmp/fylin/gauss12132/Gau-12135.inp -scrdir=/tmp/fylin/gauss12132/
 Entering Link 1 = /opt/mackerell/apps/gaussian/g03/l1.exe PID=     12137.
  
 Copyright (c) 1988,1990,1992,1993,1995,1998,2003,2004, Gaussian, Inc.
                  All Rights Reserved.
  
 This is the Gaussian(R) 03 program.  It is based on the
 the Gaussian(R) 98 system (copyright 1998, Gaussian, Inc.),
 the Gaussian(R) 94 system (copyright 1995, Gaussian, Inc.),
 the Gaussian 92(TM) system (copyright 1992, Gaussian, Inc.),
 the Gaussian 90(TM) system (copyright 1990, Gaussian, Inc.),
 the Gaussian 88(TM) system (copyright 1988, Gaussian, Inc.),
 the Gaussian 86(TM) system (copyright 1986, Carnegie Mellon
 University), and the Gaussian 82(TM) system (copyright 1983,
 Carnegie Mellon University). Gaussian is a federally registered
 trademark of Gaussian, Inc.
  
 This software contains proprietary and confidential information,
 including trade secrets, belonging to Gaussian, Inc.
  
 This software is provided under written license and may be
 used, copied, transmitted, or stored only in accord with that
 written license.
  
 The following legend is applicable only to US Government
 contracts under FAR:
  
                    RESTRICTED RIGHTS LEGEND
  
 Use, reproduction and disclosure by the US Government is
 subject to restrictions as set forth in subparagraphs (a)
 and (c) of the Commercial Computer Software - Restricted
 Rights clause in FAR 52.227-19.
  
 Gaussian, Inc.
 340 Quinnipiac St., Bldg. 40, Wallingford CT 06492
  
  
 ---------------------------------------------------------------
 Warning -- This program may not be used in any manner that
 competes with the business of Gaussian, Inc. or will provide
 assistance to any competitor of Gaussian, Inc.  The licensee
 of this program is prohibited from giving any competitor of
 Gaussian, Inc. access to this program.  By using this program,
 the user acknowledges that Gaussian, Inc. is engaged in the
 business of creating and licensing software in the field of
 computational chemistry and represents and warrants to the
 licensee that it is not a competitor of Gaussian, Inc. and that
 it will not use this program in any manner prohibited above.
 ---------------------------------------------------------------
  

 Cite this work as:
 Gaussian 03, Revision D.02,
 M. J. Frisch, G. W. Trucks, H. B. Schlegel, G. E. Scuseria, 
 M. A. Robb, J. R. Cheeseman, J. A. Montgomery, Jr., T. Vreven, 
 K. N. Kudin, J. C. Burant, J. M. Millam, S. S. Iyengar, J. Tomasi, 
 V. Barone, B. Mennucci, M. Cossi, G. Scalmani, N. Rega, 
 G. A. Petersson, H. Nakatsuji, M. Hada, M. Ehara, K. Toyota, 
 R. Fukuda, J. Hasegawa, M. Ishida, T. Nakajima, Y. Honda, O. Kitao, 
 H. Nakai, M. Klene, X. Li, J. E. Knox, H. P. Hratchian, J. B. Cross, 
 V. Bakken, C. Adamo, J. Jaramillo, R. Gomperts, R. E. Stratmann, 
 O. Yazyev, A. J. Austin, R. Cammi, C. Pomelli, J. W. Ochterski, 
 P. Y. Ayala, K. Morokuma, G. A. Voth, P. Salvador, J. J. Dannenberg, 
 V. G. Zakrzewski, S. Dapprich, A. D. Daniels, M. C. Strain, 
 O. Farkas, D. K. Malick, A. D. Rabuck, K. Raghavachari, 
 J. B. Foresman, J. V. Ortiz, Q. Cui, A. G. Baboul, S. Clifford, 
 J. Cioslowski, B. B. Stefanov, G. Liu, A. Liashenko, P. Piskorz, 
 I. Komaromi, R. L. Martin, D. J. Fox, T. Keith, M. A. Al-Laham, 
 C. Y. Peng, A. Nanayakkara, M. Challacombe, P. M. W. Gill, 
 B. Johnson, W. Chen, M. W. Wong, C. Gonzalez, and J. A. Pople, 
 Gaussian, Inc., Wallingford CT, 2004.
 
 ******************************************
 Gaussian 03:  AM64L-G03RevD.02  1-Mar-2006
                28-Mar-2016 
 ******************************************
 %mem=16MW
 -----------------------------
 #MP2/aug-cc-pVDZ Opt=Z-matrix
 -----------------------------
 1/10=7,18=40,38=1/1,3;
 2/17=6,18=5,29=3,40=1/2;
 3/5=16,7=10,11=9,16=1,25=1,30=1/1,2,3;
 4//1;
 5/5=2,38=5/2;
 8/6=4,10=1/1;
 9/15=2,16=-3/6;
 10/5=1/2;
 6/7=2,8=2,9=2,10=2/1;
 7/12=2,29=1/1,2,3,16;
 1/10=7,18=40/3(3);
 2/29=3/2;
 6/7=2,8=2,9=2,10=2/1;
 99//99;
 2/29=3/2;
 3/5=16,7=10,11=9,16=1,25=1,30=1/1,2,3;
 4/5=5,16=3/1;
 5/5=2,38=5/2;
 8/6=4,10=1/1;
 9/15=2,16=-3/6;
 10/5=1/2;
 7/12=2/1,2,3,16;
 1/18=40/3(-8);
 2/29=3/2;
 6/7=2,8=2,9=2,10=2/1;
 99//99;
 ---------------------------------------
 C1H...OHH 90.0 degrees, mp2/aug-cc-pVDZ
 ---------------------------------------
 Symbolic Z-matrix:
 Charge =  0 Multiplicity = 1
 C1                    0.        0.82237   0. 
 CL11                  0.82536  -0.78902   0. 
 H12                   0.35656   1.34757   0.896 
 H13                   0.35656   1.34757  -0.896 
 C2                   -1.51163   0.65442   0. 
 H21                  -1.99023   1.64772   0. 
 H22                  -1.84211   0.10483  -0.89332 
 H23                  -1.84211   0.10483   0.89332 
 x                    H13   1.       C1    90.      C2    0.       0
 o1w                  H13  roh      x     90.      C1    180.     0
 h1w                  o1w   0.9572   H13   127.74   x     90.      0
 h2w                  o1w   0.9572   H13   127.74   x    -90.      0
       Variables:
  roh                   2.1                      
 

 GradGradGradGradGradGradGradGradGradGradGradGradGradGradGradGradGradGrad
 Berny optimization.
 Initialization pass.
                       ----------------------------
                       !    Initial Parameters    !
                       ! (Angstroms and Degrees)  !
 ----------------------                            ----------------------
 !      Name          Value   Derivative information (Atomic Units)     !
 ------------------------------------------------------------------------
 !       roh         2.1      estimate D2E/DX2                          !
 ------------------------------------------------------------------------
 Trust Radius=3.00D-01 FncErr=1.00D-07 GrdErr=1.00D-07
 Number of steps in this run=  20 maximum allowed number of steps= 100.
 GradGradGradGradGradGradGradGradGradGradGradGradGradGradGradGradGradGrad

 ------------------------------------------------------------------------
                         Z-MATRIX (ANGSTROMS AND DEGREES)
 CD Cent Atom  N1     Length/X     N2    Alpha/Y     N3     Beta/Z      J
 ------------------------------------------------------------------------
   1   1  C     0   0.000000          0.822370          0.000000
   2   2  Cl    0   0.825357         -0.789016          0.000000
   3   3  H     0   0.356564          1.347568          0.896000
   4   4  H     0   0.356564          1.347568         -0.896000
   5   5  C     0  -1.511627          0.654420          0.000000
   6   6  H     0  -1.990226          1.647724          0.000000
   7   7  H     0  -1.842105          0.104833         -0.893316
   8   8  H     0  -1.842105          0.104833          0.893316
   9      X     4   1.000000(  8)   1   90.000( 18)   5    0.000( 27)   0
  10   9  O     4   2.100000(  9)   9   90.000( 19)   1  180.000( 28)   0
  11  10  H    10   0.957200( 10)   4  127.740( 20)   9   90.000( 29)   0
  12  11  H    10   0.957200( 11)   4  127.740( 21)   9  -90.000( 30)   0
 ------------------------------------------------------------------------
                         Z-Matrix orientation:                         
 ---------------------------------------------------------------------
 Center     Atomic     Atomic              Coordinates (Angstroms)
 Number     Number      Type              X           Y           Z
 ---------------------------------------------------------------------
    1          6             0        0.000000    0.822370    0.000000
    2         17             0        0.825357   -0.789016    0.000000
    3          1             0        0.356564    1.347568    0.896000
    4          1             0        0.356564    1.347568   -0.896000
    5          6             0       -1.511627    0.654420    0.000000
    6          1             0       -1.990226    1.647724    0.000000
    7          1             0       -1.842105    0.104833   -0.893316
    8          1             0       -1.842105    0.104833    0.893316
    9         -1             0       -0.584238    1.422224   -1.226633
   10          8             0        1.038465    2.351969   -2.609531
   11          1             0        1.155119    3.294539   -2.728635
   12          1             0        1.302301    1.969838   -3.446549
 ---------------------------------------------------------------------
                    Distance matrix (angstroms):
                    1          2          3          4          5
     1  C    0.000000
     2  Cl   1.810464   0.000000
     3  H    1.098083   2.363805   0.000000
     4  H    1.098083   2.363805   1.792000   0.000000
     5  C    1.520928   2.746817   2.184813   2.184813   0.000000
     6  H    2.154579   3.723602   2.529888   2.529888   1.102592
     7  H    2.169383   2.951666   3.095188   2.525578   1.099670
     8  H    2.169383   2.951666   2.525578   3.095188   1.099670
     9  X    1.485189   2.895025   2.322983   1.000000   1.718779
    10  O    3.198083   4.089114   3.709792   2.100000   4.024214
    11  H    3.858934   4.922358   4.191225   2.790508   4.639743
    12  H    3.858934   4.440433   4.487691   2.790508   4.639743
                    6          7          8          9         10
     6  H    0.000000
     7  H    1.788985   0.000000
     8  H    1.788985   1.786632   0.000000
     9  X    1.879436   1.851715   2.794983   0.000000
    10  O    4.059382   4.036422   5.061348   2.325941   0.000000
    11  H    4.477795   4.746153   5.681206   2.964277   0.957200
    12  H    4.777362   4.459207   5.674501   2.964277   0.957200
                   11         12
    11  H    0.000000
    12  H    1.513901   0.000000
                           Interatomic angles:
      Cl2-C1-H3=106.1207      Cl2-C1-H4=106.1207       H3-C1-H4=109.3662
      Cl2-H3-H4= 67.7252      Cl2-C1-C5=110.7818       H3-C1-C5=112.058 
      Cl2-H3-C5= 74.1792       H4-C1-C5=112.058       Cl2-H4-C5= 74.1792
       H4-H3-C5= 65.7886      Cl2-C1-H6=139.6456       H3-C1-H6= 96.7033
      Cl2-H3-H6= 99.0305       H4-C1-H6= 96.7033      Cl2-H4-H6= 99.0305
       H4-H3-H6= 69.2577       C1-C5-H6=109.3861      Cl2-C5-H6=147.4275
       H3-C5-H6= 94.8962       H4-C5-H6= 94.8962      Cl2-C1-H7= 95.3201
       H3-C1-H7=140.3472      H3-Cl2-H7= 70.2312       H4-C1-H7= 95.6195
      Cl2-H4-H7= 74.1862       H3-H4-H7= 89.9391       C1-C5-H7=110.7245
      Cl2-C5-H7= 89.6022       H3-C5-H7=138.4759       H4-C5-H7= 94.7255
       C1-H6-H7= 65.9926      Cl2-H7-H6=100.6536       H3-H6-H7= 89.8695
       H4-H7-H6= 69.4049       H6-C5-H7=108.6502      Cl2-C1-H8= 95.3201
       H3-C1-H8= 95.6195      Cl2-H3-H8= 74.1862       H4-C1-H8=140.3472
      H4-Cl2-H8= 70.2312       H4-H3-H8= 89.9391       C1-C5-H8=110.7245
      Cl2-C5-H8= 89.6022       H3-C5-H8= 94.7255       H4-C5-H8=138.4759
       C1-H6-H8= 65.9926      Cl2-H8-H6=100.6536       H3-H8-H6= 69.4049
       H4-H6-H8= 89.8695       H6-C5-H8=108.6502       C1-H7-H8= 65.6831
      Cl2-H7-H8= 72.3833       H3-H8-H7= 90.0609       H4-H7-H8= 90.0609
       H7-C5-H8=108.6521       H6-H7-H8= 60.0435      Cl2-C1-X9=122.6028
       H3-C1-X9=127.4793      Cl2-H3-X9= 76.2911       C1-H4-X9= 90.    
      Cl2-H4-X9=112.2957       H3-H4-X9=109.3072       C5-C1-X9= 69.7345
      Cl2-C5-X9= 77.0376       H3-C5-X9= 71.9157       H4-X9-C5=103.7869
       C1-X9-H6= 78.6795      Cl2-X9-H6=100.3323       H3-X9-H6= 73.1696
       H4-X9-H6=119.7998       H6-C5-X9= 80.3151       C1-X9-H7= 80.2823
      Cl2-X9-H7= 73.2066       H3-X9-H7= 95.0353       H4-X9-H7=121.7663
       H7-C5-X9= 78.794        H6-H7-X9= 62.1311       H8-C1-X9= 98.0279
      Cl2-X9-H8= 62.4671       H8-H3-X9= 70.2612       H4-X9-H8= 97.8994
       H8-C5-X9=164.83         H8-H6-X9= 99.235        H8-H7-X9=100.37  
      C1-H4-O10=180.         Cl2-H4-O10=132.6256      H3-H4-O10=144.6831
      C5-H4-O10=139.8206      H6-H4-O10=122.2393      H7-H4-O10=121.2583
      C1-X9-O10=112.2132     Cl2-X9-O10=102.5646      H3-X9-O10=105.8771
      X9-H4-O10= 90.          C5-X9-O10=168.3235      H6-X9-O10=149.5408
      H7-X9-O10=149.9195      H8-X9-O10=162.4291      C1-H4-H11=164.2608
     Cl2-H4-H11=145.3689      H3-H4-H11=131.0516      C5-H4-H11=137.3395
      H6-H4-H11=114.5365      H7-H4-H11=126.3802      C1-X9-H11=116.2811
     Cl2-X9-H11=114.2947      H3-X9-H11=104.2207      X9-H4-H11= 90.    
      C5-X9-H11=163.8162      H6-X9-H11=133.9379      H7-X9-H11=159.9124
      H8-X9-H11=161.1043     H4-O10-H11=127.74       X9-O10-H11=123.5471
      C1-H4-H12=164.2608     Cl2-H4-H12=118.7377      H3-H4-H12=156.0653
      C5-H4-H12=137.3395      H6-H4-H12=127.708       H7-H4-H12=113.9376
      C1-X9-H12=116.2811     Cl2-X9-H12= 98.542       H3-X9-H12=115.6255
      X9-H4-H12= 90.          C5-X9-H12=163.8162      H6-X9-H12=160.5114
      H7-X9-H12=134.3113      H8-X9-H12=160.3075     H4-O10-H12=127.74  
     X9-O10-H12=123.5471     H4-H11-H12= 74.2608     X9-H11-H12= 75.2052
    H11-O10-H12=104.52  
 Stoichiometry    C2H7ClO
 Framework group  C1[X(C2H7ClO)]
 Deg. of freedom    27
 Full point group                 C1
 Largest Abelian subgroup         C1      NOp   1
 Largest concise Abelian subgroup C1      NOp   1
                         Standard orientation:                         
 ---------------------------------------------------------------------
 Center     Atomic     Atomic              Coordinates (Angstroms)
 Number     Number      Type              X           Y           Z
 ---------------------------------------------------------------------
    1          6             0       -0.281070    0.439878    0.490948
    2         17             0       -1.227559   -0.993708   -0.080690
    3          1             0       -0.450838    0.505208    1.573859
    4          1             0        0.774422    0.203634    0.301438
    5          6             0       -0.722894    1.702015   -0.233638
    6          1             0       -0.132970    2.559058    0.131295
    7          1             0       -0.566366    1.603428   -1.317637
    8          1             0       -1.787956    1.904099   -0.049028
    9          8             0        2.792968   -0.248165   -0.060984
   10          1             0        3.556806    0.040740    0.438332
   11          1             0        3.155444   -0.789166   -0.762525
 ---------------------------------------------------------------------
 Rotational constants (GHZ):      5.3603101      2.2879996      1.7002839
 Standard basis: Aug-CC-pVDZ (5D, 7F)
 There are   159 symmetry adapted basis functions of A   symmetry.
 Integral buffers will be    131072 words long.
 Raffenetti 1 integral format.
 Two-electron integral symmetry is turned on.
   159 basis functions,   289 primitive gaussians,   167 cartesian basis functions
    22 alpha electrons       22 beta electrons
       nuclear repulsion energy       157.4901321412 Hartrees.
 NAtoms=   11 NActive=   11 NUniq=   11 SFac= 7.50D-01 NAtFMM=   80 NAOKFM=F Big=F
 One-electron integrals computed using PRISM.
 NBasis=   159 RedAO= T  NBF=   159
 NBsUse=   159 1.00D-06 NBFU=   159
 Harris functional with IExCor=  205 diagonalized for initial guess.
 ExpMin= 2.97D-02 ExpMax= 1.28D+05 ExpMxC= 1.24D+03 IAcc=3 IRadAn=         5 AccDes= 0.00D+00
 HarFok:  IExCor= 205 AccDes= 0.00D+00 IRadAn=         5 IDoV=1
 ScaDFX=  1.000000  1.000000  1.000000  1.000000
 Initial guess orbital symmetries:
       Occupied  (A) (A) (A) (A) (A) (A) (A) (A) (A) (A) (A) (A)
                 (A) (A) (A) (A) (A) (A) (A) (A) (A) (A)
       Virtual   (A) (A) (A) (A) (A) (A) (A) (A) (A) (A) (A) (A)
                 (A) (A) (A) (A) (A) (A) (A) (A) (A) (A) (A) (A)
                 (A) (A) (A) (A) (A) (A) (A) (A) (A) (A) (A) (A)
                 (A) (A) (A) (A) (A) (A) (A) (A) (A) (A) (A) (A)
                 (A) (A) (A) (A) (A) (A) (A) (A) (A) (A) (A) (A)
                 (A) (A) (A) (A) (A) (A) (A) (A) (A) (A) (A) (A)
                 (A) (A) (A) (A) (A) (A) (A) (A) (A) (A) (A) (A)
                 (A) (A) (A) (A) (A) (A) (A) (A) (A) (A) (A) (A)
                 (A) (A) (A) (A) (A) (A) (A) (A) (A) (A) (A) (A)
                 (A) (A) (A) (A) (A) (A) (A) (A) (A) (A) (A) (A)
                 (A) (A) (A) (A) (A) (A) (A) (A) (A) (A) (A) (A)
                 (A) (A) (A) (A) (A)
 The electronic state of the initial guess is 1-A.
 Requested convergence on RMS density matrix=1.00D-08 within 128 cycles.
 Requested convergence on MAX density matrix=1.00D-06.
 Requested convergence on             energy=1.00D-06.
 No special actions if energy rises.
 SCF Done:  E(RHF) =  -614.206268282     A.U. after   12 cycles
             Convg  =    0.5926D-08             -V/T =  2.0004
             S**2   =   0.0000
 ExpMin= 2.97D-02 ExpMax= 1.28D+05 ExpMxC= 1.24D+03 IAcc=3 IRadAn=         5 AccDes= 0.00D+00
 HarFok:  IExCor= 205 AccDes= 0.00D+00 IRadAn=         5 IDoV=1
 ScaDFX=  1.000000  1.000000  1.000000  1.000000
 Range of M.O.s used for correlation:     9   159
 NBasis=   159 NAE=    22 NBE=    22 NFC=     8 NFV=     0
 NROrb=    151 NOA=    14 NOB=    14 NVA=   137 NVB=   137

 **** Warning!!: The largest alpha MO coefficient is  0.22079980D+02

 Disk-based method using ON**2 memory for 14 occupieds at a time.
 Estimated scratch disk usage=   125318081 words.
 Actual    scratch disk usage=   115147713 words.
 JobTyp=1 Pass  1:  I=   9 to  22 NPSUse=  1 ParTrn=F ParDer=F DoDerP=T.
 Spin components of T(2) and E(2):
     alpha-alpha T2 =       0.2865073588D-01 E2=     -0.8225263520D-01
     alpha-beta  T2 =       0.1676508439D+00 E2=     -0.5100699895D+00
     beta-beta   T2 =       0.2865073588D-01 E2=     -0.8225263520D-01
 ANorm=    0.1106775639D+01
 E2 =    -0.6745752599D+00 EUMP2 =    -0.61488084354159D+03
 DoAtom=TTTTTTTTTTT
          Differentiating once with respect to electric field.
                with respect to dipole field.
          Differentiating once with respect to nuclear coordinates.
          There are   1 degrees of freedom in the 1st order CPHF.
 Petite list used in FoFDir.
 MinBra= 0 MaxBra= 2 Meth= 1.
 IRaf=       0 NMat=   1 IRICut=       1 DoRegI=T DoRafI=F ISym2E= 1 JSym2E=1.
     1 vectors were produced by pass  0.
 AX will form   1 AO Fock derivatives at one time.
     1 vectors were produced by pass  1.
     1 vectors were produced by pass  2.
     1 vectors were produced by pass  3.
     1 vectors were produced by pass  4.
     1 vectors were produced by pass  5.
     1 vectors were produced by pass  6.
     1 vectors were produced by pass  7.
     1 vectors were produced by pass  8.
     1 vectors were produced by pass  9.
     1 vectors were produced by pass 10.
     1 vectors were produced by pass 11.
     1 vectors were produced by pass 12.
 Inv2:  IOpt= 1 Iter= 1 AM= 3.01D-16 Conv= 1.00D-12.
 Inverted reduced A of dimension   13 with in-core refinement.
 End of Minotr Frequency-dependent properties file   721 does not exist.

 **********************************************************************

            Population analysis using the SCF density.

 **********************************************************************

 Orbital symmetries:
       Occupied  (A) (A) (A) (A) (A) (A) (A) (A) (A) (A) (A) (A)
                 (A) (A) (A) (A) (A) (A) (A) (A) (A) (A)
       Virtual   (A) (A) (A) (A) (A) (A) (A) (A) (A) (A) (A) (A)
                 (A) (A) (A) (A) (A) (A) (A) (A) (A) (A) (A) (A)
                 (A) (A) (A) (A) (A) (A) (A) (A) (A) (A) (A) (A)
                 (A) (A) (A) (A) (A) (A) (A) (A) (A) (A) (A) (A)
                 (A) (A) (A) (A) (A) (A) (A) (A) (A) (A) (A) (A)
                 (A) (A) (A) (A) (A) (A) (A) (A) (A) (A) (A) (A)
                 (A) (A) (A) (A) (A) (A) (A) (A) (A) (A) (A) (A)
                 (A) (A) (A) (A) (A) (A) (A) (A) (A) (A) (A) (A)
                 (A) (A) (A) (A) (A) (A) (A) (A) (A) (A) (A) (A)
                 (A) (A) (A) (A) (A) (A) (A) (A) (A) (A) (A) (A)
                 (A) (A) (A) (A) (A) (A) (A) (A) (A) (A) (A) (A)
                 (A) (A) (A) (A) (A)
 The electronic state is 1-A.
 Alpha  occ. eigenvalues -- -104.80265 -20.59146 -11.28151 -11.23174 -10.52885
 Alpha  occ. eigenvalues --   -7.99643  -7.99344  -7.99338  -1.37294  -1.11617
 Alpha  occ. eigenvalues --   -0.98438  -0.82444  -0.73474  -0.63941  -0.60357
 Alpha  occ. eigenvalues --   -0.58792  -0.54136  -0.52532  -0.50934  -0.48737
 Alpha  occ. eigenvalues --   -0.41651  -0.41381
 Alpha virt. eigenvalues --    0.02622   0.04564   0.05017   0.05919   0.06910
 Alpha virt. eigenvalues --    0.07472   0.09786   0.10790   0.13269   0.14760
 Alpha virt. eigenvalues --    0.15577   0.16741   0.17545   0.18107   0.18555
 Alpha virt. eigenvalues --    0.19570   0.20190   0.20807   0.22091   0.22392
 Alpha virt. eigenvalues --    0.22970   0.25962   0.28780   0.29332   0.30466
 Alpha virt. eigenvalues --    0.32609   0.32949   0.35554   0.36482   0.38005
 Alpha virt. eigenvalues --    0.38499   0.39356   0.41384   0.42366   0.44729
 Alpha virt. eigenvalues --    0.45521   0.45916   0.47054   0.48326   0.49124
 Alpha virt. eigenvalues --    0.50357   0.51630   0.53909   0.55449   0.56239
 Alpha virt. eigenvalues --    0.56867   0.57820   0.60087   0.60222   0.63050
 Alpha virt. eigenvalues --    0.63903   0.65033   0.66644   0.66895   0.67851
 Alpha virt. eigenvalues --    0.68585   0.71639   0.72303   0.72434   0.74331
 Alpha virt. eigenvalues --    0.74754   0.78342   0.79189   0.83850   0.87388
 Alpha virt. eigenvalues --    0.90004   0.91095   0.92822   0.94093   0.96097
 Alpha virt. eigenvalues --    1.04388   1.06670   1.08049   1.10838   1.13525
 Alpha virt. eigenvalues --    1.14691   1.16914   1.19153   1.22685   1.23659
 Alpha virt. eigenvalues --    1.27021   1.31167   1.34759   1.38226   1.43068
 Alpha virt. eigenvalues --    1.47264   1.47573   1.48990   1.50901   1.51189
 Alpha virt. eigenvalues --    1.54241   1.58578   1.62403   1.64251   1.67691
 Alpha virt. eigenvalues --    1.77670   1.82374   1.83965   1.89539   1.95248
 Alpha virt. eigenvalues --    1.97666   2.00357   2.01984   2.02503   2.07886
 Alpha virt. eigenvalues --    2.10542   2.12684   2.14722   2.16058   2.17725
 Alpha virt. eigenvalues --    2.21149   2.23696   2.24444   2.27051   2.34784
 Alpha virt. eigenvalues --    2.44688   2.48424   2.49414   2.50127   2.53559
 Alpha virt. eigenvalues --    2.57753   2.64516   2.66941   2.73423   2.82743
 Alpha virt. eigenvalues --    2.85225   2.90948   2.94709   2.99196   3.00219
 Alpha virt. eigenvalues --    3.07881   3.15417   3.68941   3.73929   3.84924
 Alpha virt. eigenvalues --    4.08954   4.34661
          Condensed to atoms (all electrons):
              1          2          3          4          5          6
     1  C    4.924822   0.340723   0.340673   0.227892   0.490849  -0.013735
     2  Cl   0.340723  17.235508  -0.097625  -0.164793  -0.105535   0.024305
     3  H    0.340673  -0.097625   0.957759  -0.196845  -0.013256  -0.025290
     4  H    0.227892  -0.164793  -0.196845   1.223190  -0.038784  -0.037884
     5  C    0.490849  -0.105535  -0.013256  -0.038784   4.220818   0.352146
     6  H   -0.013735   0.024305  -0.025290  -0.037884   0.352146   0.950717
     7  H   -0.062205  -0.028678   0.047911  -0.072736   0.368419  -0.109952
     8  H   -0.062551  -0.028767  -0.055455   0.057059   0.373369  -0.125601
     9  O   -0.061970   0.011105   0.000563  -0.025888   0.016280   0.001951
    10  H    0.004999   0.000122   0.000995  -0.000264  -0.001886  -0.000146
    11  H    0.003003  -0.000813  -0.000040   0.003859  -0.001586  -0.000194
              7          8          9         10         11
     1  C   -0.062205  -0.062551  -0.061970   0.004999   0.003003
     2  Cl  -0.028678  -0.028767   0.011105   0.000122  -0.000813
     3  H    0.047911  -0.055455   0.000563   0.000995  -0.000040
     4  H   -0.072736   0.057059  -0.025888  -0.000264   0.003859
     5  C    0.368419   0.373369   0.016280  -0.001886  -0.001586
     6  H   -0.109952  -0.125601   0.001951  -0.000146  -0.000194
     7  H    0.987295  -0.127519   0.001181   0.000131  -0.000206
     8  H   -0.127519   0.994139  -0.000957  -0.000097   0.000077
     9  O    0.001181  -0.000957   7.721178   0.357327   0.354806
    10  H    0.000131  -0.000097   0.357327   0.515037  -0.041131
    11  H   -0.000206   0.000077   0.354806  -0.041131   0.514823
 Mulliken atomic charges:
              1
     1  C   -0.132499
     2  Cl  -0.185552
     3  H    0.040609
     4  H    0.025194
     5  C    0.339165
     6  H   -0.016318
     7  H   -0.003641
     8  H   -0.023697
     9  O   -0.375576
    10  H    0.164913
    11  H    0.167404
 Sum of Mulliken charges=   0.00000
 Atomic charges with hydrogens summed into heavy atoms:
              1
     1  C   -0.066696
     2  Cl  -0.185552
     3  H    0.000000
     4  H    0.000000
     5  C    0.295508
     6  H    0.000000
     7  H    0.000000
     8  H    0.000000
     9  O   -0.043260
    10  H    0.000000
    11  H    0.000000
 Sum of Mulliken charges=   0.00000
 Electronic spatial extent (au):  <R**2>=   691.0493
 Charge=     0.0000 electrons
 Dipole moment (field-independent basis, Debye):
    X=     3.6760    Y=     1.5048    Z=     0.2700  Tot=     3.9812
 Quadrupole moment (field-independent basis, Debye-Ang):
   XX=   -22.7482   YY=   -33.9276   ZZ=   -31.8763
   XY=    -3.2419   XZ=    -0.9274   YZ=     2.0127
 Traceless Quadrupole moment (field-independent basis, Debye-Ang):
   XX=     6.7692   YY=    -4.4102   ZZ=    -2.3589
   XY=    -3.2419   XZ=    -0.9274   YZ=     2.0127
 Octapole moment (field-independent basis, Debye-Ang**2):
  XXX=    71.3352  YYY=    -4.1441  ZZZ=     0.0121  XYY=     5.5809
  XXY=    -5.8081  XXZ=    -1.0437  XZZ=     8.2936  YZZ=    -1.5227
  YYZ=    -1.6345  XYZ=     4.3627
 Hexadecapole moment (field-independent basis, Debye-Ang**3):
 XXXX=  -292.3034 YYYY=  -273.0834 ZZZZ=   -61.7269 XXXY=   -23.2679
 XXXZ=     1.4638 YYYX=     1.9178 YYYZ=     6.1951 ZZZX=    -4.5409
 ZZZY=     2.0889 XXYY=  -124.6927 XXZZ=   -84.7262 YYZZ=   -56.9622
 XXYZ=    18.2990 YYXZ=    -2.1752 ZZXY=    -3.6595
 N-N= 1.574901321412D+02 E-N=-1.772986560885D+03  KE= 6.139472551257D+02
 ***** Axes restored to original set *****
 -------------------------------------------------------------------
 Center     Atomic                   Forces (Hartrees/Bohr)
 Number     Number              X              Y              Z
 -------------------------------------------------------------------
    1          6          -0.000091726    0.003232571   -0.002229807
    2         17           0.000386787   -0.001325843    0.000175196
    3          1          -0.000297885   -0.000719883    0.001047198
    4          1          -0.000862721   -0.002030734    0.002816807
    5          6           0.000616079   -0.000868589    0.001216411
    6          1           0.000097792    0.000123284   -0.000140889
    7          1           0.000001048    0.000077874   -0.000176754
    8          1          -0.000778030   -0.000161281    0.000110366
    9          8          -0.003169807   -0.003371994    0.006568056
   10          1           0.001333177    0.008776668   -0.001566508
   11          1           0.002765285   -0.003732073   -0.007820076
 -------------------------------------------------------------------
 Cartesian Forces:  Max     0.008776668 RMS     0.002827145
 ------------------------------------------------------------------------
           Internal Coordinate Forces (Hartree/Bohr or radian)
 Cent Atom N1     Length/X     N2     Alpha/Y      N3      Beta/Z       J
 ------------------------------------------------------------------------
   1  C        -0.000011(   1)      0.003766(  13)     -0.001885(  25)
   2  Cl        0.000387(   2)     -0.001326(  14)      0.000175(  26)
   3  H        -0.000298(   3)     -0.000720(  15)      0.001047(  27)
   4  H        -0.000025(   4)     -0.000791(  16)     -0.000292(  28)
   5  C         0.000627(   5)     -0.000969(  17)      0.001162(  29)
   6  H         0.000098(   6)      0.000123(  18)     -0.000141(  30)
   7  H         0.000001(   7)      0.000078(  19)     -0.000177(  31)
   8  H        -0.000778(   8)     -0.000161(  20)      0.000110(  32)
      X     4   0.000000(   9)  1  -0.000311(  21)  5  -0.000305(  33)  0
   9  O     4   0.003401(  10)  9  -0.000311(  22)  1  -0.000930(  34)  0
  10  H    10   0.009000(  11)  4   0.000915(  23)  9   0.000116(  35)  0
  11  H    10   0.009090(  12)  4  -0.000160(  24)  9  -0.000421(  36)  0
 ------------------------------------------------------------------------
 Internal  Forces:  Max     0.009090329 RMS     0.002374098

 GradGradGradGradGradGradGradGradGradGradGradGradGradGradGradGradGradGrad
 Berny optimization.
 Search for a local minimum.
 Step number   1 out of a maximum of  20
 All quantities printed in internal units (Hartrees-Bohrs-Radians)
 Second derivative matrix not updated -- first step.
 The second derivative matrix:
                          roh
           roh          0.03666
     Eigenvalues ---    0.03666
 RFO step:  Lambda=-3.12898021D-04.
 Linear search not attempted -- first point.
 Variable       Old X    -DE/DX   Delta X   Delta X   Delta X     New X
                                 (Linear)    (Quad)   (Total)
   roh        3.96842   0.00340   0.00000   0.09199   0.09199   4.06042
         Item               Value     Threshold  Converged?
 Maximum Force            0.003401     0.000450     NO 
 RMS     Force            0.003401     0.000300     NO 
 Maximum Displacement     0.091992     0.001800     NO 
 RMS     Displacement     0.091992     0.001200     NO 
 Predicted change in Energy=-1.577730D-04
 GradGradGradGradGradGradGradGradGradGradGradGradGradGradGradGradGradGrad

 ------------------------------------------------------------------------
                         Z-MATRIX (ANGSTROMS AND DEGREES)
 CD Cent Atom  N1     Length/X     N2    Alpha/Y     N3     Beta/Z      J
 ------------------------------------------------------------------------
   1   1  C     0   0.000000          0.822370          0.000000
   2   2  Cl    0   0.825357         -0.789016          0.000000
   3   3  H     0   0.356564          1.347568          0.896000
   4   4  H     0   0.356564          1.347568         -0.896000
   5   5  C     0  -1.511627          0.654420          0.000000
   6   6  H     0  -1.990226          1.647724          0.000000
   7   7  H     0  -1.842105          0.104833         -0.893316
   8   8  H     0  -1.842105          0.104833          0.893316
   9      X     4   1.000000(  8)   1   90.000( 18)   5    0.000( 27)   0
  10   9  O     4   2.148680(  9)   9   90.000( 19)   1  180.000( 28)   0
  11  10  H    10   0.957200( 10)   4  127.740( 20)   9   90.000( 29)   0
  12  11  H    10   0.957200( 11)   4  127.740( 21)   9  -90.000( 30)   0
 ------------------------------------------------------------------------
                         Z-Matrix orientation:                         
 ---------------------------------------------------------------------
 Center     Atomic     Atomic              Coordinates (Angstroms)
 Number     Number      Type              X           Y           Z
 ---------------------------------------------------------------------
    1          6             0        0.000000    0.822370    0.000000
    2         17             0        0.825357   -0.789016    0.000000
    3          1             0        0.356564    1.347568    0.896000
    4          1             0        0.356564    1.347568   -0.896000
    5          6             0       -1.511627    0.654420    0.000000
    6          1             0       -1.990226    1.647724    0.000000
    7          1             0       -1.842105    0.104833   -0.893316
    8          1             0       -1.842105    0.104833    0.893316
    9         -1             0       -0.584238    1.422224   -1.226633
   10          8             0        1.054272    2.375252   -2.649253
   11          1             0        1.170926    3.317822   -2.768357
   12          1             0        1.318108    1.993121   -3.486270
 ---------------------------------------------------------------------
                    Distance matrix (angstroms):
                    1          2          3          4          5
     1  C    0.000000
     2  Cl   1.810464   0.000000
     3  H    1.098083   2.363805   0.000000
     4  H    1.098083   2.363805   1.792000   0.000000
     5  C    1.520928   2.746817   2.184813   2.184813   0.000000
     6  H    2.154579   3.723602   2.529888   2.529888   1.102592
     7  H    2.169383   2.951666   3.095188   2.525578   1.099670
     8  H    2.169383   2.951666   2.525578   3.095188   1.099670
     9  X    1.485189   2.895025   2.322983   1.000000   1.718779
    10  O    3.246763   4.133223   3.756561   2.148680   4.069845
    11  H    3.906680   4.964809   4.239410   2.837394   4.685467
    12  H    3.906680   4.487446   4.532725   2.837394   4.685467
                    6          7          8          9         10
     6  H    0.000000
     7  H    1.788985   0.000000
     8  H    1.788985   1.786632   0.000000
     9  X    1.879436   1.851715   2.794983   0.000000
    10  O    4.100830   4.077636   5.108189   2.369984   0.000000
    11  H    4.521715   4.787216   5.727958   3.008456   0.957200
    12  H    4.818553   4.502887   5.721307   3.008456   0.957200
                   11         12
    11  H    0.000000
    12  H    1.513901   0.000000
                           Interatomic angles:
      Cl2-C1-H3=106.1207      Cl2-C1-H4=106.1207       H3-C1-H4=109.3662
      Cl2-H3-H4= 67.7252      Cl2-C1-C5=110.7818       H3-C1-C5=112.058 
      Cl2-H3-C5= 74.1792       H4-C1-C5=112.058       Cl2-H4-C5= 74.1792
       H4-H3-C5= 65.7886      Cl2-C1-H6=139.6456       H3-C1-H6= 96.7033
      Cl2-H3-H6= 99.0305       H4-C1-H6= 96.7033      Cl2-H4-H6= 99.0305
       H4-H3-H6= 69.2577       C1-C5-H6=109.3861      Cl2-C5-H6=147.4275
       H3-C5-H6= 94.8962       H4-C5-H6= 94.8962      Cl2-C1-H7= 95.3201
       H3-C1-H7=140.3472      H3-Cl2-H7= 70.2312       H4-C1-H7= 95.6195
      Cl2-H4-H7= 74.1862       H3-H4-H7= 89.9391       C1-C5-H7=110.7245
      Cl2-C5-H7= 89.6022       H3-C5-H7=138.4759       H4-C5-H7= 94.7255
       C1-H6-H7= 65.9926      Cl2-H7-H6=100.6536       H3-H6-H7= 89.8695
       H4-H7-H6= 69.4049       H6-C5-H7=108.6502      Cl2-C1-H8= 95.3201
       H3-C1-H8= 95.6195      Cl2-H3-H8= 74.1862       H4-C1-H8=140.3472
      H4-Cl2-H8= 70.2312       H4-H3-H8= 89.9391       C1-C5-H8=110.7245
      Cl2-C5-H8= 89.6022       H3-C5-H8= 94.7255       H4-C5-H8=138.4759
       C1-H6-H8= 65.9926      Cl2-H8-H6=100.6536       H3-H8-H6= 69.4049
       H4-H6-H8= 89.8695       H6-C5-H8=108.6502       C1-H7-H8= 65.6831
      Cl2-H7-H8= 72.3833       H3-H8-H7= 90.0609       H4-H7-H8= 90.0609
       H7-C5-H8=108.6521       H6-H7-H8= 60.0435      Cl2-C1-X9=122.6028
       H3-C1-X9=127.4793      Cl2-H3-X9= 76.2911       C1-H4-X9= 90.    
      Cl2-H4-X9=112.2957       H3-H4-X9=109.3072       C5-C1-X9= 69.7345
      Cl2-C5-X9= 77.0376       H3-C5-X9= 71.9157       H4-X9-C5=103.7869
       C1-X9-H6= 78.6795      Cl2-X9-H6=100.3323       H3-X9-H6= 73.1696
       H4-X9-H6=119.7998       H6-C5-X9= 80.3151       C1-X9-H7= 80.2823
      Cl2-X9-H7= 73.2066       H3-X9-H7= 95.0353       H4-X9-H7=121.7663
       H7-C5-X9= 78.794        H6-H7-X9= 62.1311       H8-C1-X9= 98.0279
      Cl2-X9-H8= 62.4671       H8-H3-X9= 70.2612       H4-X9-H8= 97.8994
       H8-C5-X9=164.83         H8-H6-X9= 99.235        H8-H7-X9=100.37  
      C1-H4-O10=180.         Cl2-H4-O10=132.6256      H3-H4-O10=144.6831
      C5-H4-O10=139.8206      H6-H4-O10=122.2393      H7-H4-O10=121.2583
      C1-X9-O10=112.7192     Cl2-X9-O10=102.9944      H3-X9-O10=106.3449
      X9-H4-O10= 90.          C5-X9-O10=168.8295      H6-X9-O10=149.3976
      H7-X9-O10=149.7435      H8-X9-O10=162.9348      C1-H4-H11=164.5275
     Cl2-H4-H11=145.1699      H3-H4-H11=131.2912      C5-H4-H11=137.4205
      H6-H4-H11=114.6808      H7-H4-H11=126.3163      C1-X9-H11=116.6306
     Cl2-X9-H11=114.4775      H3-X9-H11=104.6098      X9-H4-H11= 90.    
      C5-X9-H11=164.1509      H6-X9-H11=134.0518      H7-X9-H11=159.5257
      H8-X9-H11=161.4855     H4-O10-H11=127.74       X9-O10-H11=123.7055
      C1-H4-H12=164.5275     Cl2-H4-H12=118.9781      H3-H4-H12=155.9099
      C5-H4-H12=137.4205      H6-H4-H12=127.6389      H7-H4-H12=114.0755
      C1-X9-H12=116.6306     Cl2-X9-H12= 98.9342      H3-X9-H12=115.8694
      X9-H4-H12= 90.          C5-X9-H12=164.1509      H6-X9-H12=160.133 
      H7-X9-H12=134.4069      H8-X9-H12=160.6852     H4-O10-H12=127.74  
     X9-O10-H12=123.7055     H4-H11-H12= 74.5275     X9-H11-H12= 75.4273
    H11-O10-H12=104.52  
 Stoichiometry    C2H7ClO
 Framework group  C1[X(C2H7ClO)]
 Deg. of freedom    27
 Full point group                 C1
 Largest Abelian subgroup         C1      NOp   1
 Largest concise Abelian subgroup C1      NOp   1
                         Standard orientation:                         
 ---------------------------------------------------------------------
 Center     Atomic     Atomic              Coordinates (Angstroms)
 Number     Number      Type              X           Y           Z
 ---------------------------------------------------------------------
    1          6             0       -0.295616    0.440829    0.491805
    2         17             0       -1.231946   -0.998891   -0.081141
    3          1             0       -0.468481    0.505901    1.574242
    4          1             0        0.761762    0.210869    0.305100
    5          6             0       -0.743291    1.699739   -0.234801
    6          1             0       -0.159498    2.560613    0.130975
    7          1             0       -0.583461    1.601330   -1.318335
    8          1             0       -1.810018    1.895478   -0.052994
    9          8             0        2.830790   -0.239106   -0.060238
   10          1             0        3.591609    0.054793    0.440769
   11          1             0        3.198296   -0.778396   -0.760478
 ---------------------------------------------------------------------
 Rotational constants (GHZ):      5.3496062      2.2384866      1.6719910
 Standard basis: Aug-CC-pVDZ (5D, 7F)
 There are   159 symmetry adapted basis functions of A   symmetry.
 Integral buffers will be    131072 words long.
 Raffenetti 1 integral format.
 Two-electron integral symmetry is turned on.
   159 basis functions,   289 primitive gaussians,   167 cartesian basis functions
    22 alpha electrons       22 beta electrons
       nuclear repulsion energy       156.9388467809 Hartrees.
 NAtoms=   11 NActive=   11 NUniq=   11 SFac= 7.50D-01 NAtFMM=   80 NAOKFM=F Big=F
 One-electron integrals computed using PRISM.
 NBasis=   159 RedAO= T  NBF=   159
 NBsUse=   159 1.00D-06 NBFU=   159
 Initial guess read from the read-write file:
 Initial guess orbital symmetries:
       Occupied  (A) (A) (A) (A) (A) (A) (A) (A) (A) (A) (A) (A)
                 (A) (A) (A) (A) (A) (A) (A) (A) (A) (A)
       Virtual   (A) (A) (A) (A) (A) (A) (A) (A) (A) (A) (A) (A)
                 (A) (A) (A) (A) (A) (A) (A) (A) (A) (A) (A) (A)
                 (A) (A) (A) (A) (A) (A) (A) (A) (A) (A) (A) (A)
                 (A) (A) (A) (A) (A) (A) (A) (A) (A) (A) (A) (A)
                 (A) (A) (A) (A) (A) (A) (A) (A) (A) (A) (A) (A)
                 (A) (A) (A) (A) (A) (A) (A) (A) (A) (A) (A) (A)
                 (A) (A) (A) (A) (A) (A) (A) (A) (A) (A) (A) (A)
                 (A) (A) (A) (A) (A) (A) (A) (A) (A) (A) (A) (A)
                 (A) (A) (A) (A) (A) (A) (A) (A) (A) (A) (A) (A)
                 (A) (A) (A) (A) (A) (A) (A) (A) (A) (A) (A) (A)
                 (A) (A) (A) (A) (A) (A) (A) (A) (A) (A) (A) (A)
                 (A) (A) (A) (A) (A)
 Harris functional with IExCor=  205 diagonalized for initial guess.
 ExpMin= 2.97D-02 ExpMax= 1.28D+05 ExpMxC= 1.24D+03 IAcc=3 IRadAn=         5 AccDes= 0.00D+00
 HarFok:  IExCor= 205 AccDes= 0.00D+00 IRadAn=         5 IDoV=1
 ScaDFX=  1.000000  1.000000  1.000000  1.000000
 Requested convergence on RMS density matrix=1.00D-08 within 128 cycles.
 Requested convergence on MAX density matrix=1.00D-06.
 Requested convergence on             energy=1.00D-06.
 No special actions if energy rises.
 SCF Done:  E(RHF) =  -614.206753094     A.U. after    9 cycles
             Convg  =    0.9367D-08             -V/T =  2.0004
             S**2   =   0.0000
 ExpMin= 2.97D-02 ExpMax= 1.28D+05 ExpMxC= 1.24D+03 IAcc=3 IRadAn=         5 AccDes= 0.00D+00
 HarFok:  IExCor= 205 AccDes= 0.00D+00 IRadAn=         5 IDoV=1
 ScaDFX=  1.000000  1.000000  1.000000  1.000000
 Range of M.O.s used for correlation:     9   159
 NBasis=   159 NAE=    22 NBE=    22 NFC=     8 NFV=     0
 NROrb=    151 NOA=    14 NOB=    14 NVA=   137 NVB=   137

 **** Warning!!: The largest alpha MO coefficient is  0.22546569D+02

 Disk-based method using ON**2 memory for 14 occupieds at a time.
 Estimated scratch disk usage=   125318081 words.
 Actual    scratch disk usage=   115147713 words.
 JobTyp=1 Pass  1:  I=   9 to  22 NPSUse=  1 ParTrn=F ParDer=F DoDerP=T.
 Spin components of T(2) and E(2):
     alpha-alpha T2 =       0.2863248860D-01 E2=     -0.8219280916D-01
     alpha-beta  T2 =       0.1676469767D+00 E2=     -0.5099710629D+00
     beta-beta   T2 =       0.2863248860D-01 E2=     -0.8219280916D-01
 ANorm=    0.1106757405D+01
 E2 =    -0.6743566813D+00 EUMP2 =    -0.61488110977500D+03
 DoAtom=TTTTTTTTTTT
          Differentiating once with respect to electric field.
                with respect to dipole field.
          Differentiating once with respect to nuclear coordinates.
          There are   1 degrees of freedom in the 1st order CPHF.
 Petite list used in FoFDir.
 MinBra= 0 MaxBra= 2 Meth= 1.
 IRaf=       0 NMat=   1 IRICut=       1 DoRegI=T DoRafI=F ISym2E= 1 JSym2E=1.
     1 vectors were produced by pass  0.
 AX will form   1 AO Fock derivatives at one time.
     1 vectors were produced by pass  1.
     1 vectors were produced by pass  2.
     1 vectors were produced by pass  3.
     1 vectors were produced by pass  4.
     1 vectors were produced by pass  5.
     1 vectors were produced by pass  6.
     1 vectors were produced by pass  7.
     1 vectors were produced by pass  8.
     1 vectors were produced by pass  9.
     1 vectors were produced by pass 10.
     1 vectors were produced by pass 11.
     1 vectors were produced by pass 12.
 Inv2:  IOpt= 1 Iter= 1 AM= 2.66D-16 Conv= 1.00D-12.
 Inverted reduced A of dimension   13 with in-core refinement.
 End of Minotr Frequency-dependent properties file   721 does not exist.
 ***** Axes restored to original set *****
 -------------------------------------------------------------------
 Center     Atomic                   Forces (Hartrees/Bohr)
 Number     Number              X              Y              Z
 -------------------------------------------------------------------
    1          6          -0.000008491    0.003143670   -0.002280974
    2         17           0.000352144   -0.001246974    0.000180786
    3          1          -0.000276679   -0.000680115    0.000953787
    4          1          -0.000644469   -0.001662805    0.002215927
    5          6           0.000575106   -0.000814992    0.001128971
    6          1           0.000101669    0.000113450   -0.000140050
    7          1           0.000008690    0.000082078   -0.000163812
    8          1          -0.000719520   -0.000153010    0.000108797
    9          8          -0.003444457   -0.003792330    0.007304569
   10          1           0.001320947    0.008720073   -0.001544262
   11          1           0.002735059   -0.003709048   -0.007763739
 -------------------------------------------------------------------
 Cartesian Forces:  Max     0.008720073 RMS     0.002863146
 ------------------------------------------------------------------------
           Internal Coordinate Forces (Hartree/Bohr or radian)
 Cent Atom N1     Length/X     N2     Alpha/Y      N3      Beta/Z       J
 ------------------------------------------------------------------------
   1  C         0.000082(   1)      0.003624(  13)     -0.001963(  25)
   2  Cl        0.000352(   2)     -0.001247(  14)      0.000181(  26)
   3  H        -0.000277(   3)     -0.000680(  15)      0.000954(  27)
   4  H        -0.000134(   4)     -0.000830(  16)     -0.000054(  28)
   5  C         0.000586(   5)     -0.000910(  17)      0.001078(  29)
   6  H         0.000102(   6)      0.000113(  18)     -0.000140(  30)
   7  H         0.000009(   7)      0.000082(  19)     -0.000164(  31)
   8  H        -0.000720(   8)     -0.000153(  20)      0.000109(  32)
      X     4   0.000000(   9)  1  -0.000320(  21)  5  -0.000289(  33)  0
   9  O     4   0.002416(  10)  9  -0.000320(  22)  1  -0.000825(  34)  0
  10  H    10   0.008940(  11)  4   0.000887(  23)  9   0.000116(  35)  0
  11  H    10   0.009024(  12)  4  -0.000169(  24)  9  -0.000405(  36)  0
 ------------------------------------------------------------------------
 Internal  Forces:  Max     0.009023542 RMS     0.002315260

 GradGradGradGradGradGradGradGradGradGradGradGradGradGradGradGradGradGrad
 Berny optimization.
 Search for a local minimum.
 Step number   2 out of a maximum of  20
 All quantities printed in internal units (Hartrees-Bohrs-Radians)
 Update second derivatives using D2CorN and points  1  2
 Trust test= 1.69D+00 RLast= 9.20D-02 DXMaxT set to 3.00D-01
 The second derivative matrix:
                          roh
           roh          0.01071
 Maximum step size (   0.300) exceeded in linear search.
    -- Step size scaled by   0.814
 Quartic linear search produced a step of  3.26115.
 Variable       Old X    -DE/DX   Delta X   Delta X   Delta X     New X
                                 (Linear)    (Quad)   (Total)
   roh        4.06042   0.00242   0.30000   0.00000   0.30000   4.36042
         Item               Value     Threshold  Converged?
 Maximum Force            0.002416     0.000450     NO 
 RMS     Force            0.002416     0.000300     NO 
 Maximum Displacement     0.300000     0.001800     NO 
 RMS     Displacement     0.300000     0.001200     NO 
 Predicted change in Energy=-2.429479D-04
 GradGradGradGradGradGradGradGradGradGradGradGradGradGradGradGradGradGrad

 ------------------------------------------------------------------------
                         Z-MATRIX (ANGSTROMS AND DEGREES)
 CD Cent Atom  N1     Length/X     N2    Alpha/Y     N3     Beta/Z      J
 ------------------------------------------------------------------------
   1   1  C     0   0.000000          0.822370          0.000000
   2   2  Cl    0   0.825357         -0.789016          0.000000
   3   3  H     0   0.356564          1.347568          0.896000
   4   4  H     0   0.356564          1.347568         -0.896000
   5   5  C     0  -1.511627          0.654420          0.000000
   6   6  H     0  -1.990226          1.647724          0.000000
   7   7  H     0  -1.842105          0.104833         -0.893316
   8   8  H     0  -1.842105          0.104833          0.893316
   9      X     4   1.000000(  8)   1   90.000( 18)   5    0.000( 27)   0
  10   9  O     4   2.307433(  9)   9   90.000( 19)   1  180.000( 28)   0
  11  10  H    10   0.957200( 10)   4  127.740( 20)   9   90.000( 29)   0
  12  11  H    10   0.957200( 11)   4  127.740( 21)   9  -90.000( 30)   0
 ------------------------------------------------------------------------
                         Z-Matrix orientation:                         
 ---------------------------------------------------------------------
 Center     Atomic     Atomic              Coordinates (Angstroms)
 Number     Number      Type              X           Y           Z
 ---------------------------------------------------------------------
    1          6             0        0.000000    0.822370    0.000000
    2         17             0        0.825357   -0.789016    0.000000
    3          1             0        0.356564    1.347568    0.896000
    4          1             0        0.356564    1.347568   -0.896000
    5          6             0       -1.511627    0.654420    0.000000
    6          1             0       -1.990226    1.647724    0.000000
    7          1             0       -1.842105    0.104833   -0.893316
    8          1             0       -1.842105    0.104833    0.893316
    9         -1             0       -0.584238    1.422224   -1.226633
   10          8             0        1.105822    2.451181   -2.778790
   11          1             0        1.222476    3.393751   -2.897894
   12          1             0        1.369657    2.069050   -3.615808
 ---------------------------------------------------------------------
                    Distance matrix (angstroms):
                    1          2          3          4          5
     1  C    0.000000
     2  Cl   1.810464   0.000000
     3  H    1.098083   2.363805   0.000000
     4  H    1.098083   2.363805   1.792000   0.000000
     5  C    1.520928   2.746817   2.184813   2.184813   0.000000
     6  H    2.154579   3.723602   2.529888   2.529888   1.102592
     7  H    2.169383   2.951666   3.095188   2.525578   1.099670
     8  H    2.169383   2.951666   2.525578   3.095188   1.099670
     9  X    1.485189   2.895025   2.322983   1.000000   1.718779
    10  O    3.405517   4.277758   3.909403   2.307433   4.219131
    11  H    4.062541   5.104021   4.396624   2.990694   4.834981
    12  H    4.062541   4.640999   4.680097   2.990694   4.834981
                    6          7          8          9         10
     6  H    0.000000
     7  H    1.788985   0.000000
     8  H    1.788985   1.786632   0.000000
     9  X    1.879436   1.851715   2.794983   0.000000
    10  O    4.237066   4.213150   5.261177   2.514806   0.000000
    11  H    4.665603   4.922090   5.880639   3.153450   0.957200
    12  H    4.953827   4.646023   5.874161   3.153450   0.957200
                   11         12
    11  H    0.000000
    12  H    1.513901   0.000000
                           Interatomic angles:
      Cl2-C1-H3=106.1207      Cl2-C1-H4=106.1207       H3-C1-H4=109.3662
      Cl2-H3-H4= 67.7252      Cl2-C1-C5=110.7818       H3-C1-C5=112.058 
      Cl2-H3-C5= 74.1792       H4-C1-C5=112.058       Cl2-H4-C5= 74.1792
       H4-H3-C5= 65.7886      Cl2-C1-H6=139.6456       H3-C1-H6= 96.7033
      Cl2-H3-H6= 99.0305       H4-C1-H6= 96.7033      Cl2-H4-H6= 99.0305
       H4-H3-H6= 69.2577       C1-C5-H6=109.3861      Cl2-C5-H6=147.4275
       H3-C5-H6= 94.8962       H4-C5-H6= 94.8962      Cl2-C1-H7= 95.3201
       H3-C1-H7=140.3472      H3-Cl2-H7= 70.2312       H4-C1-H7= 95.6195
      Cl2-H4-H7= 74.1862       H3-H4-H7= 89.9391       C1-C5-H7=110.7245
      Cl2-C5-H7= 89.6022       H3-C5-H7=138.4759       H4-C5-H7= 94.7255
       C1-H6-H7= 65.9926      Cl2-H7-H6=100.6536       H3-H6-H7= 89.8695
       H4-H7-H6= 69.4049       H6-C5-H7=108.6502      Cl2-C1-H8= 95.3201
       H3-C1-H8= 95.6195      Cl2-H3-H8= 74.1862       H4-C1-H8=140.3472
      H4-Cl2-H8= 70.2312       H4-H3-H8= 89.9391       C1-C5-H8=110.7245
      Cl2-C5-H8= 89.6022       H3-C5-H8= 94.7255       H4-C5-H8=138.4759
       C1-H6-H8= 65.9926      Cl2-H8-H6=100.6536       H3-H8-H6= 69.4049
       H4-H6-H8= 89.8695       H6-C5-H8=108.6502       C1-H7-H8= 65.6831
      Cl2-H7-H8= 72.3833       H3-H8-H7= 90.0609       H4-H7-H8= 90.0609
       H7-C5-H8=108.6521       H6-H7-H8= 60.0435      Cl2-C1-X9=122.6028
       H3-C1-X9=127.4793      Cl2-H3-X9= 76.2911       C1-H4-X9= 90.    
      Cl2-H4-X9=112.2957       H3-H4-X9=109.3072       C5-C1-X9= 69.7345
      Cl2-C5-X9= 77.0376       H3-C5-X9= 71.9157       H4-X9-C5=103.7869
       C1-X9-H6= 78.6795      Cl2-X9-H6=100.3323       H3-X9-H6= 73.1696
       H4-X9-H6=119.7998       H6-C5-X9= 80.3151       C1-X9-H7= 80.2823
      Cl2-X9-H7= 73.2066       H3-X9-H7= 95.0353       H4-X9-H7=121.7663
       H7-C5-X9= 78.794        H6-H7-X9= 62.1311       H8-C1-X9= 98.0279
      Cl2-X9-H8= 62.4671       H8-H3-X9= 70.2612       H4-X9-H8= 97.8994
       H8-C5-X9=164.83         H8-H6-X9= 99.235        H8-H7-X9=100.37  
      C1-H4-O10=180.         Cl2-H4-O10=132.6256      H3-H4-O10=144.6831
      C5-H4-O10=139.8206      H6-H4-O10=122.2393      H7-H4-O10=121.2583
      C1-X9-O10=114.2455     Cl2-X9-O10=104.289       H3-X9-O10=107.7551
      X9-H4-O10= 90.          C5-X9-O10=170.3558      H6-X9-O10=148.9241
      H7-X9-O10=149.1723      H8-X9-O10=164.4604      C1-H4-H11=165.3389
     Cl2-H4-H11=144.5598      H3-H4-H11=132.0188      C5-H4-H11=137.6592
      H6-H4-H11=115.1175      H7-H4-H11=126.1165      X9-H4-H11= 90.    
     H4-O10-H11=127.74       X9-O10-H11=124.167       C1-H4-H12=165.3389
     Cl2-H4-H12=119.7086      H3-H4-H12=155.4258      C5-H4-H12=137.6592
      H6-H4-H12=127.4232      H7-H4-H12=114.4925      X9-H4-H12= 90.    
     H4-O10-H12=127.74       X9-O10-H12=124.167      H4-H11-H12= 75.3389
    H11-O10-H12=104.52  
 Stoichiometry    C2H7ClO
 Framework group  C1[X(C2H7ClO)]
 Deg. of freedom    27
 Full point group                 C1
 Largest Abelian subgroup         C1      NOp   1
 Largest concise Abelian subgroup C1      NOp   1
                         Standard orientation:                         
 ---------------------------------------------------------------------
 Center     Atomic     Atomic              Coordinates (Angstroms)
 Number     Number      Type              X           Y           Z
 ---------------------------------------------------------------------
    1          6             0       -0.342020    0.443526    0.494406
    2         17             0       -1.248438   -1.013639   -0.082530
    3          1             0       -0.524333    0.507779    1.575341
    4          1             0        0.720646    0.231835    0.316315
    5          6             0       -0.806164    1.692855   -0.238377
    6          1             0       -0.240440    2.564628    0.129967
    7          1             0       -0.636288    1.595038   -1.320435
    8          1             0       -1.877538    1.870155   -0.065180
    9          8             0        2.953654   -0.212997   -0.057914
   10          1             0        3.705305    0.095288    0.448261
   11          1             0        3.335972   -0.747176   -0.754129
 ---------------------------------------------------------------------
 Rotational constants (GHZ):      5.3187659      2.0863834      1.5836083
 Standard basis: Aug-CC-pVDZ (5D, 7F)
 There are   159 symmetry adapted basis functions of A   symmetry.
 Integral buffers will be    131072 words long.
 Raffenetti 1 integral format.
 Two-electron integral symmetry is turned on.
   159 basis functions,   289 primitive gaussians,   167 cartesian basis functions
    22 alpha electrons       22 beta electrons
       nuclear repulsion energy       155.2293673283 Hartrees.
 NAtoms=   11 NActive=   11 NUniq=   11 SFac= 7.50D-01 NAtFMM=   80 NAOKFM=F Big=F
 One-electron integrals computed using PRISM.
 NBasis=   159 RedAO= T  NBF=   159
 NBsUse=   159 1.00D-06 NBFU=   159
 Initial guess read from the read-write file:
 Initial guess orbital symmetries:
       Occupied  (A) (A) (A) (A) (A) (A) (A) (A) (A) (A) (A) (A)
                 (A) (A) (A) (A) (A) (A) (A) (A) (A) (A)
       Virtual   (A) (A) (A) (A) (A) (A) (A) (A) (A) (A) (A) (A)
                 (A) (A) (A) (A) (A) (A) (A) (A) (A) (A) (A) (A)
                 (A) (A) (A) (A) (A) (A) (A) (A) (A) (A) (A) (A)
                 (A) (A) (A) (A) (A) (A) (A) (A) (A) (A) (A) (A)
                 (A) (A) (A) (A) (A) (A) (A) (A) (A) (A) (A) (A)
                 (A) (A) (A) (A) (A) (A) (A) (A) (A) (A) (A) (A)
                 (A) (A) (A) (A) (A) (A) (A) (A) (A) (A) (A) (A)
                 (A) (A) (A) (A) (A) (A) (A) (A) (A) (A) (A) (A)
                 (A) (A) (A) (A) (A) (A) (A) (A) (A) (A) (A) (A)
                 (A) (A) (A) (A) (A) (A) (A) (A) (A) (A) (A) (A)
                 (A) (A) (A) (A) (A) (A) (A) (A) (A) (A) (A) (A)
                 (A) (A) (A) (A) (A)
 Harris functional with IExCor=  205 diagonalized for initial guess.
 ExpMin= 2.97D-02 ExpMax= 1.28D+05 ExpMxC= 1.24D+03 IAcc=3 IRadAn=         5 AccDes= 0.00D+00
 HarFok:  IExCor= 205 AccDes= 0.00D+00 IRadAn=         5 IDoV=1
 ScaDFX=  1.000000  1.000000  1.000000  1.000000
 Requested convergence on RMS density matrix=1.00D-08 within 128 cycles.
 Requested convergence on MAX density matrix=1.00D-06.
 Requested convergence on             energy=1.00D-06.
 No special actions if energy rises.
 SCF Done:  E(RHF) =  -614.207725746     A.U. after   10 cycles
             Convg  =    0.5836D-08             -V/T =  2.0005
             S**2   =   0.0000
 ExpMin= 2.97D-02 ExpMax= 1.28D+05 ExpMxC= 1.24D+03 IAcc=3 IRadAn=         5 AccDes= 0.00D+00
 HarFok:  IExCor= 205 AccDes= 0.00D+00 IRadAn=         5 IDoV=1
 ScaDFX=  1.000000  1.000000  1.000000  1.000000
 Range of M.O.s used for correlation:     9   159
 NBasis=   159 NAE=    22 NBE=    22 NFC=     8 NFV=     0
 NROrb=    151 NOA=    14 NOB=    14 NVA=   137 NVB=   137

 **** Warning!!: The largest alpha MO coefficient is  0.22764734D+02

 Disk-based method using ON**2 memory for 14 occupieds at a time.
 Estimated scratch disk usage=   124984643 words.
 Actual    scratch disk usage=   114840899 words.
 JobTyp=1 Pass  1:  I=   9 to  22 NPSUse=  1 ParTrn=F ParDer=F DoDerP=T.
 Spin components of T(2) and E(2):
     alpha-alpha T2 =       0.2858292823D-01 E2=     -0.8203104869D-01
     alpha-beta  T2 =       0.1676321451D+00 E2=     -0.5096839012D+00
     beta-beta   T2 =       0.2858292823D-01 E2=     -0.8203104869D-01
 ANorm=    0.1106705924D+01
 E2 =    -0.6737459986D+00 EUMP2 =    -0.61488147174466D+03
 DoAtom=TTTTTTTTTTT
          Differentiating once with respect to electric field.
                with respect to dipole field.
          Differentiating once with respect to nuclear coordinates.
          There are   1 degrees of freedom in the 1st order CPHF.
 Petite list used in FoFDir.
 MinBra= 0 MaxBra= 2 Meth= 1.
 IRaf=       0 NMat=   1 IRICut=       1 DoRegI=T DoRafI=F ISym2E= 1 JSym2E=1.
     1 vectors were produced by pass  0.
 AX will form   1 AO Fock derivatives at one time.
     1 vectors were produced by pass  1.
     1 vectors were produced by pass  2.
     1 vectors were produced by pass  3.
     1 vectors were produced by pass  4.
     1 vectors were produced by pass  5.
     1 vectors were produced by pass  6.
     1 vectors were produced by pass  7.
     1 vectors were produced by pass  8.
     1 vectors were produced by pass  9.
     1 vectors were produced by pass 10.
     1 vectors were produced by pass 11.
     1 vectors were produced by pass 12.
 Inv2:  IOpt= 1 Iter= 1 AM= 3.09D-16 Conv= 1.00D-12.
 Inverted reduced A of dimension   13 with in-core refinement.
 End of Minotr Frequency-dependent properties file   721 does not exist.
 ***** Axes restored to original set *****
 -------------------------------------------------------------------
 Center     Atomic                   Forces (Hartrees/Bohr)
 Number     Number              X              Y              Z
 -------------------------------------------------------------------
    1          6           0.000153167    0.002794911   -0.002246753
    2         17           0.000259871   -0.001034206    0.000195519
    3          1          -0.000219252   -0.000566066    0.000708861
    4          1          -0.000135136   -0.000785804    0.000794924
    5          6           0.000461499   -0.000668836    0.000895855
    6          1           0.000107539    0.000087079   -0.000135291
    7          1           0.000025964    0.000091199   -0.000129662
    8          1          -0.000564124   -0.000130286    0.000103051
    9          8          -0.004035757   -0.004722479    0.008929710
   10          1           0.001288388    0.008594827   -0.001480731
   11          1           0.002657840   -0.003660339   -0.007635482
 -------------------------------------------------------------------
 Cartesian Forces:  Max     0.008929710 RMS     0.002979140
 ------------------------------------------------------------------------
           Internal Coordinate Forces (Hartree/Bohr or radian)
 Cent Atom N1     Length/X     N2     Alpha/Y      N3      Beta/Z       J
 ------------------------------------------------------------------------
   1  C         0.000269(   1)      0.003128(  13)     -0.002005(  25)
   2  Cl        0.000260(   2)     -0.001034(  14)      0.000196(  26)
   3  H        -0.000219(   3)     -0.000566(  15)      0.000709(  27)
   4  H        -0.000349(   4)     -0.000828(  16)      0.000410(  28)
   5  C         0.000470(   5)     -0.000748(  17)      0.000853(  29)
   6  H         0.000108(   6)      0.000087(  18)     -0.000135(  30)
   7  H         0.000026(   7)      0.000091(  19)     -0.000130(  31)
   8  H        -0.000564(   8)     -0.000130(  20)      0.000103(  32)
      X     4   0.000000(   9)  1  -0.000340(  21)  5  -0.000241(  33)  0
   9  O     4   0.000225(  10)  9  -0.000340(  22)  1  -0.000534(  34)  0
  10  H    10   0.008805(  11)  4   0.000796(  23)  9   0.000116(  35)  0
  11  H    10   0.008871(  12)  4  -0.000199(  24)  9  -0.000357(  36)  0
 ------------------------------------------------------------------------
 Internal  Forces:  Max     0.008870659 RMS     0.002214023

 GradGradGradGradGradGradGradGradGradGradGradGradGradGradGradGradGradGrad
 Berny optimization.
 Search for a local minimum.
 Step number   3 out of a maximum of  20
 All quantities printed in internal units (Hartrees-Bohrs-Radians)
 Update second derivatives using D2CorN and points  2  3
 The second derivative matrix:
                          roh
           roh          0.00731
     Eigenvalues ---    0.00731
 RFO step:  Lambda= 0.00000000D+00.
 Quartic linear search produced a step of  0.15401.
 Variable       Old X    -DE/DX   Delta X   Delta X   Delta X     New X
                                 (Linear)    (Quad)   (Total)
   roh        4.36042   0.00022   0.04620   0.00000   0.04620   4.40662
         Item               Value     Threshold  Converged?
 Maximum Force            0.000225     0.000450     YES
 RMS     Force            0.000225     0.000300     YES
 Maximum Displacement     0.046204     0.001800     NO 
 RMS     Displacement     0.046204     0.001200     NO 
 Predicted change in Energy=-2.575271D-06
 GradGradGradGradGradGradGradGradGradGradGradGradGradGradGradGradGradGrad

 ------------------------------------------------------------------------
                         Z-MATRIX (ANGSTROMS AND DEGREES)
 CD Cent Atom  N1     Length/X     N2    Alpha/Y     N3     Beta/Z      J
 ------------------------------------------------------------------------
   1   1  C     0   0.000000          0.822370          0.000000
   2   2  Cl    0   0.825357         -0.789016          0.000000
   3   3  H     0   0.356564          1.347568          0.896000
   4   4  H     0   0.356564          1.347568         -0.896000
   5   5  C     0  -1.511627          0.654420          0.000000
   6   6  H     0  -1.990226          1.647724          0.000000
   7   7  H     0  -1.842105          0.104833         -0.893316
   8   8  H     0  -1.842105          0.104833          0.893316
   9      X     4   1.000000(  8)   1   90.000( 18)   5    0.000( 27)   0
  10   9  O     4   2.331883(  9)   9   90.000( 19)   1  180.000( 28)   0
  11  10  H    10   0.957200( 10)   4  127.740( 20)   9   90.000( 29)   0
  12  11  H    10   0.957200( 11)   4  127.740( 21)   9  -90.000( 30)   0
 ------------------------------------------------------------------------
                         Z-Matrix orientation:                         
 ---------------------------------------------------------------------
 Center     Atomic     Atomic              Coordinates (Angstroms)
 Number     Number      Type              X           Y           Z
 ---------------------------------------------------------------------
    1          6             0        0.000000    0.822370    0.000000
    2         17             0        0.825357   -0.789016    0.000000
    3          1             0        0.356564    1.347568    0.896000
    4          1             0        0.356564    1.347568   -0.896000
    5          6             0       -1.511627    0.654420    0.000000
    6          1             0       -1.990226    1.647724    0.000000
    7          1             0       -1.842105    0.104833   -0.893316
    8          1             0       -1.842105    0.104833    0.893316
    9         -1             0       -0.584238    1.422224   -1.226633
   10          8             0        1.113761    2.462875   -2.798740
   11          1             0        1.230415    3.405445   -2.917844
   12          1             0        1.377597    2.080744   -3.635758
 ---------------------------------------------------------------------
                    Distance matrix (angstroms):
                    1          2          3          4          5
     1  C    0.000000
     2  Cl   1.810464   0.000000
     3  H    1.098083   2.363805   0.000000
     4  H    1.098083   2.363805   1.792000   0.000000
     5  C    1.520928   2.746817   2.184813   2.184813   0.000000
     6  H    2.154579   3.723602   2.529888   2.529888   1.102592
     7  H    2.169383   2.951666   3.095188   2.525578   1.099670
     8  H    2.169383   2.951666   2.525578   3.095188   1.099670
     9  X    1.485189   2.895025   2.322983   1.000000   1.718779
    10  O    3.429966   4.300107   3.932984   2.331883   4.242184
    11  H    4.086565   5.125563   4.420846   3.014354   4.858060
    12  H    4.086565   4.664679   4.702859   3.014354   4.858060
                    6          7          8          9         10
     6  H    0.000000
     7  H    1.788985   0.000000
     8  H    1.788985   1.786632   0.000000
     9  X    1.879436   1.851715   2.794983   0.000000
    10  O    4.258187   4.234165   5.284770   2.537258   0.000000
    11  H    4.687849   4.942989   5.904182   3.175898   0.957200
    12  H    4.974784   4.668157   5.897730   3.175898   0.957200
                   11         12
    11  H    0.000000
    12  H    1.513901   0.000000
                           Interatomic angles:
      Cl2-C1-H3=106.1207      Cl2-C1-H4=106.1207       H3-C1-H4=109.3662
      Cl2-H3-H4= 67.7252      Cl2-C1-C5=110.7818       H3-C1-C5=112.058 
      Cl2-H3-C5= 74.1792       H4-C1-C5=112.058       Cl2-H4-C5= 74.1792
       H4-H3-C5= 65.7886      Cl2-C1-H6=139.6456       H3-C1-H6= 96.7033
      Cl2-H3-H6= 99.0305       H4-C1-H6= 96.7033      Cl2-H4-H6= 99.0305
       H4-H3-H6= 69.2577       C1-C5-H6=109.3861      Cl2-C5-H6=147.4275
       H3-C5-H6= 94.8962       H4-C5-H6= 94.8962      Cl2-C1-H7= 95.3201
       H3-C1-H7=140.3472      H3-Cl2-H7= 70.2312       H4-C1-H7= 95.6195
      Cl2-H4-H7= 74.1862       H3-H4-H7= 89.9391       C1-C5-H7=110.7245
      Cl2-C5-H7= 89.6022       H3-C5-H7=138.4759       H4-C5-H7= 94.7255
       C1-H6-H7= 65.9926      Cl2-H7-H6=100.6536       H3-H6-H7= 89.8695
       H4-H7-H6= 69.4049       H6-C5-H7=108.6502      Cl2-C1-H8= 95.3201
       H3-C1-H8= 95.6195      Cl2-H3-H8= 74.1862       H4-C1-H8=140.3472
      H4-Cl2-H8= 70.2312       H4-H3-H8= 89.9391       C1-C5-H8=110.7245
      Cl2-C5-H8= 89.6022       H3-C5-H8= 94.7255       H4-C5-H8=138.4759
       C1-H6-H8= 65.9926      Cl2-H8-H6=100.6536       H3-H8-H6= 69.4049
       H4-H6-H8= 89.8695       H6-C5-H8=108.6502       C1-H7-H8= 65.6831
      Cl2-H7-H8= 72.3833       H3-H8-H7= 90.0609       H4-H7-H8= 90.0609
       H7-C5-H8=108.6521       H6-H7-H8= 60.0435      Cl2-C1-X9=122.6028
       H3-C1-X9=127.4793      Cl2-H3-X9= 76.2911       C1-H4-X9= 90.    
      Cl2-H4-X9=112.2957       H3-H4-X9=109.3072       C5-C1-X9= 69.7345
      Cl2-C5-X9= 77.0376       H3-C5-X9= 71.9157       H4-X9-C5=103.7869
       C1-X9-H6= 78.6795      Cl2-X9-H6=100.3323       H3-X9-H6= 73.1696
       H4-X9-H6=119.7998       H6-C5-X9= 80.3151       C1-X9-H7= 80.2823
      Cl2-X9-H7= 73.2066       H3-X9-H7= 95.0353       H4-X9-H7=121.7663
       H7-C5-X9= 78.794        H6-H7-X9= 62.1311       H8-C1-X9= 98.0279
      Cl2-X9-H8= 62.4671       H8-H3-X9= 70.2612       H4-X9-H8= 97.8994
       H8-C5-X9=164.83         H8-H6-X9= 99.235        H8-H7-X9=100.37  
      C1-H4-O10=180.         Cl2-H4-O10=132.6256      H3-H4-O10=144.6831
      C5-H4-O10=139.8206      H6-H4-O10=122.2393      H7-H4-O10=121.2583
      C1-X9-O10=114.4651     Cl2-X9-O10=104.4749      H3-X9-O10=107.9578
      X9-H4-O10= 90.          C5-X9-O10=170.5754      H6-X9-O10=148.851 
      H7-X9-O10=149.0854      H8-X9-O10=164.6798      C1-H4-H11=165.4565
     Cl2-H4-H11=144.4708      H3-H4-H11=132.1241      C5-H4-H11=137.6928
      H6-H4-H11=115.1805      H7-H4-H11=126.0869      X9-H4-H11= 90.    
     H4-O10-H11=127.74       X9-O10-H11=124.2313      C1-H4-H12=165.4565
     Cl2-H4-H12=119.8144      H3-H4-H12=155.3543      C5-H4-H12=137.6928
      H6-H4-H12=127.3912      H7-H4-H12=114.5526      X9-H4-H12= 90.    
     H4-O10-H12=127.74       X9-O10-H12=124.2313     H4-H12-H11= 75.4565
    H11-O10-H12=104.52  
 Stoichiometry    C2H7ClO
 Framework group  C1[X(C2H7ClO)]
 Deg. of freedom    27
 Full point group                 C1
 Largest Abelian subgroup         C1      NOp   1
 Largest concise Abelian subgroup C1      NOp   1
                         Standard orientation:                         
 ---------------------------------------------------------------------
 Center     Atomic     Atomic              Coordinates (Angstroms)
 Number     Number      Type              X           Y           Z
 ---------------------------------------------------------------------
    1          6             0       -0.349041    0.443894    0.494782
    2         17             0       -1.251243   -1.015656   -0.082733
    3          1             0       -0.532727    0.508024    1.575492
    4          1             0        0.714339    0.234750    0.317950
    5          6             0       -0.815414    1.691865   -0.238900
    6          1             0       -0.252238    2.565129    0.129816
    7          1             0       -0.644082    1.594140   -1.320737
    8          1             0       -1.887413    1.866596   -0.066962
    9          8             0        2.972525   -0.209387   -0.057570
   10          1             0        3.722850    0.100887    0.449356
   11          1             0        3.356932   -0.742839   -0.753194
 ---------------------------------------------------------------------
 Rotational constants (GHZ):      5.3145006      2.0641808      1.5705100
 Standard basis: Aug-CC-pVDZ (5D, 7F)
 There are   159 symmetry adapted basis functions of A   symmetry.
 Integral buffers will be    131072 words long.
 Raffenetti 1 integral format.
 Two-electron integral symmetry is turned on.
   159 basis functions,   289 primitive gaussians,   167 cartesian basis functions
    22 alpha electrons       22 beta electrons
       nuclear repulsion energy       154.9774188742 Hartrees.
 NAtoms=   11 NActive=   11 NUniq=   11 SFac= 7.50D-01 NAtFMM=   80 NAOKFM=F Big=F
 One-electron integrals computed using PRISM.
 NBasis=   159 RedAO= T  NBF=   159
 NBsUse=   159 1.00D-06 NBFU=   159
 Initial guess read from the read-write file:
 Initial guess orbital symmetries:
       Occupied  (A) (A) (A) (A) (A) (A) (A) (A) (A) (A) (A) (A)
                 (A) (A) (A) (A) (A) (A) (A) (A) (A) (A)
       Virtual   (A) (A) (A) (A) (A) (A) (A) (A) (A) (A) (A) (A)
                 (A) (A) (A) (A) (A) (A) (A) (A) (A) (A) (A) (A)
                 (A) (A) (A) (A) (A) (A) (A) (A) (A) (A) (A) (A)
                 (A) (A) (A) (A) (A) (A) (A) (A) (A) (A) (A) (A)
                 (A) (A) (A) (A) (A) (A) (A) (A) (A) (A) (A) (A)
                 (A) (A) (A) (A) (A) (A) (A) (A) (A) (A) (A) (A)
                 (A) (A) (A) (A) (A) (A) (A) (A) (A) (A) (A) (A)
                 (A) (A) (A) (A) (A) (A) (A) (A) (A) (A) (A) (A)
                 (A) (A) (A) (A) (A) (A) (A) (A) (A) (A) (A) (A)
                 (A) (A) (A) (A) (A) (A) (A) (A) (A) (A) (A) (A)
                 (A) (A) (A) (A) (A) (A) (A) (A) (A) (A) (A) (A)
                 (A) (A) (A) (A) (A)
 Harris functional with IExCor=  205 diagonalized for initial guess.
 ExpMin= 2.97D-02 ExpMax= 1.28D+05 ExpMxC= 1.24D+03 IAcc=3 IRadAn=         5 AccDes= 0.00D+00
 HarFok:  IExCor= 205 AccDes= 0.00D+00 IRadAn=         5 IDoV=1
 ScaDFX=  1.000000  1.000000  1.000000  1.000000
 Requested convergence on RMS density matrix=1.00D-08 within 128 cycles.
 Requested convergence on MAX density matrix=1.00D-06.
 Requested convergence on             energy=1.00D-06.
 No special actions if energy rises.
 SCF Done:  E(RHF) =  -614.207813226     A.U. after    9 cycles
             Convg  =    0.3569D-08             -V/T =  2.0005
             S**2   =   0.0000
 ExpMin= 2.97D-02 ExpMax= 1.28D+05 ExpMxC= 1.24D+03 IAcc=3 IRadAn=         5 AccDes= 0.00D+00
 HarFok:  IExCor= 205 AccDes= 0.00D+00 IRadAn=         5 IDoV=1
 ScaDFX=  1.000000  1.000000  1.000000  1.000000
 Range of M.O.s used for correlation:     9   159
 NBasis=   159 NAE=    22 NBE=    22 NFC=     8 NFV=     0
 NROrb=    151 NOA=    14 NOB=    14 NVA=   137 NVB=   137

 **** Warning!!: The largest alpha MO coefficient is  0.22776319D+02

 Disk-based method using ON**2 memory for 14 occupieds at a time.
 Estimated scratch disk usage=   124984643 words.
 Actual    scratch disk usage=   114840899 words.
 JobTyp=1 Pass  1:  I=   9 to  22 NPSUse=  1 ParTrn=F ParDer=F DoDerP=T.
 Spin components of T(2) and E(2):
     alpha-alpha T2 =       0.2857644875D-01 E2=     -0.8200998395D-01
     alpha-beta  T2 =       0.1676295774D+00 E2=     -0.5096435631D+00
     beta-beta   T2 =       0.2857644875D-01 E2=     -0.8200998395D-01
 ANorm=    0.1106698909D+01
 E2 =    -0.6736635310D+00 EUMP2 =    -0.61488147675657D+03
 DoAtom=TTTTTTTTTTT
          Differentiating once with respect to electric field.
                with respect to dipole field.
          Differentiating once with respect to nuclear coordinates.
          There are   1 degrees of freedom in the 1st order CPHF.
 Petite list used in FoFDir.
 MinBra= 0 MaxBra= 2 Meth= 1.
 IRaf=       0 NMat=   1 IRICut=       1 DoRegI=T DoRafI=F ISym2E= 1 JSym2E=1.
     1 vectors were produced by pass  0.
 AX will form   1 AO Fock derivatives at one time.
     1 vectors were produced by pass  1.
     1 vectors were produced by pass  2.
     1 vectors were produced by pass  3.
     1 vectors were produced by pass  4.
     1 vectors were produced by pass  5.
     1 vectors were produced by pass  6.
     1 vectors were produced by pass  7.
     1 vectors were produced by pass  8.
     1 vectors were produced by pass  9.
     1 vectors were produced by pass 10.
     1 vectors were produced by pass 11.
     1 vectors were produced by pass 12.
 Inv2:  IOpt= 1 Iter= 1 AM= 2.56D-16 Conv= 1.00D-12.
 Inverted reduced A of dimension   13 with in-core refinement.
 End of Minotr Frequency-dependent properties file   721 does not exist.
 ***** Axes restored to original set *****
 -------------------------------------------------------------------
 Center     Atomic                   Forces (Hartrees/Bohr)
 Number     Number              X              Y              Z
 -------------------------------------------------------------------
    1          6           0.000167587    0.002737913   -0.002223938
    2         17           0.000248080   -0.001006643    0.000197338
    3          1          -0.000211793   -0.000550449    0.000678043
    4          1          -0.000079691   -0.000687329    0.000637296
    5          6           0.000446280   -0.000649647    0.000865896
    6          1           0.000107759    0.000083659   -0.000134363
    7          1           0.000027785    0.000092101   -0.000125316
    8          1          -0.000544198   -0.000127261    0.000102084
    9          8          -0.004095037   -0.004819689    0.009098483
   10          1           0.001284568    0.008582038   -0.001473119
   11          1           0.002648661   -0.003654693   -0.007622404
 -------------------------------------------------------------------
 Cartesian Forces:  Max     0.009098483 RMS     0.002993720
 ------------------------------------------------------------------------
           Internal Coordinate Forces (Hartree/Bohr or radian)
 Cent Atom N1     Length/X     N2     Alpha/Y      N3      Beta/Z       J
 ------------------------------------------------------------------------
   1  C         0.000286(   1)      0.003052(  13)     -0.001993(  25)
   2  Cl        0.000248(   2)     -0.001007(  14)      0.000197(  26)
   3  H        -0.000212(   3)     -0.000550(  15)      0.000678(  27)
   4  H        -0.000369(   4)     -0.000816(  16)      0.000451(  28)
   5  C         0.000455(   5)     -0.000727(  17)      0.000824(  29)
   6  H         0.000108(   6)      0.000084(  18)     -0.000134(  30)
   7  H         0.000028(   7)      0.000092(  19)     -0.000125(  31)
   8  H        -0.000544(   8)     -0.000127(  20)      0.000102(  32)
      X     4   0.000000(   9)  1  -0.000342(  21)  5  -0.000234(  33)  0
   9  O     4  -0.000003(  10)  9  -0.000342(  22)  1  -0.000495(  34)  0
  10  H    10   0.008791(  11)  4   0.000785(  23)  9   0.000116(  35)  0
  11  H    10   0.008854(  12)  4  -0.000201(  24)  9  -0.000350(  36)  0
 ------------------------------------------------------------------------
 Internal  Forces:  Max     0.008854439 RMS     0.002205391

 GradGradGradGradGradGradGradGradGradGradGradGradGradGradGradGradGradGrad
 Berny optimization.
 Search for a local minimum.
 Step number   4 out of a maximum of  20
 All quantities printed in internal units (Hartrees-Bohrs-Radians)
 Update second derivatives using D2CorN and points  3  4
 Trust test= 1.95D+00 RLast= 4.62D-02 DXMaxT set to 3.00D-01
 The second derivative matrix:
                          roh
           roh          0.00493
     Eigenvalues ---    0.00493
 RFO step:  Lambda= 0.00000000D+00.
 Quartic linear search produced a step of -0.01605.
 Variable       Old X    -DE/DX   Delta X   Delta X   Delta X     New X
                                 (Linear)    (Quad)   (Total)
   roh        4.40662   0.00000  -0.00074   0.00000  -0.00074   4.40588
         Item               Value     Threshold  Converged?
 Maximum Force            0.000003     0.000450     YES
 RMS     Force            0.000003     0.000300     YES
 Maximum Displacement     0.000742     0.001800     YES
 RMS     Displacement     0.000742     0.001200     YES
 Predicted change in Energy=-1.214110D-09
 Optimization completed.
    -- Stationary point found.
                       ----------------------------
                       !   Optimized Parameters   !
                       ! (Angstroms and Degrees)  !
 ----------------------                            ----------------------
 !      Name          Value   Derivative information (Atomic Units)     !
 ------------------------------------------------------------------------
 !       roh         2.3319   -DE/DX =    0.0                           !
 ------------------------------------------------------------------------
 GradGradGradGradGradGradGradGradGradGradGradGradGradGradGradGradGradGrad

 ------------------------------------------------------------------------
                         Z-MATRIX (ANGSTROMS AND DEGREES)
 CD Cent Atom  N1     Length/X     N2    Alpha/Y     N3     Beta/Z      J
 ------------------------------------------------------------------------
   1   1  C     0   0.000000          0.822370          0.000000
   2   2  Cl    0   0.825357         -0.789016          0.000000
   3   3  H     0   0.356564          1.347568          0.896000
   4   4  H     0   0.356564          1.347568         -0.896000
   5   5  C     0  -1.511627          0.654420          0.000000
   6   6  H     0  -1.990226          1.647724          0.000000
   7   7  H     0  -1.842105          0.104833         -0.893316
   8   8  H     0  -1.842105          0.104833          0.893316
   9      X     4   1.000000(  8)   1   90.000( 18)   5    0.000( 27)   0
  10   9  O     4   2.331883(  9)   9   90.000( 19)   1  180.000( 28)   0
  11  10  H    10   0.957200( 10)   4  127.740( 20)   9   90.000( 29)   0
  12  11  H    10   0.957200( 11)   4  127.740( 21)   9  -90.000( 30)   0
 ------------------------------------------------------------------------
                         Z-Matrix orientation:                         
 ---------------------------------------------------------------------
 Center     Atomic     Atomic              Coordinates (Angstroms)
 Number     Number      Type              X           Y           Z
 ---------------------------------------------------------------------
    1          6             0        0.000000    0.822370    0.000000
    2         17             0        0.825357   -0.789016    0.000000
    3          1             0        0.356564    1.347568    0.896000
    4          1             0        0.356564    1.347568   -0.896000
    5          6             0       -1.511627    0.654420    0.000000
    6          1             0       -1.990226    1.647724    0.000000
    7          1             0       -1.842105    0.104833   -0.893316
    8          1             0       -1.842105    0.104833    0.893316
    9         -1             0       -0.584238    1.422224   -1.226633
   10          8             0        1.113761    2.462875   -2.798740
   11          1             0        1.230415    3.405445   -2.917844
   12          1             0        1.377597    2.080744   -3.635758
 ---------------------------------------------------------------------
                    Distance matrix (angstroms):
                    1          2          3          4          5
     1  C    0.000000
     2  Cl   1.810464   0.000000
     3  H    1.098083   2.363805   0.000000
     4  H    1.098083   2.363805   1.792000   0.000000
     5  C    1.520928   2.746817   2.184813   2.184813   0.000000
     6  H    2.154579   3.723602   2.529888   2.529888   1.102592
     7  H    2.169383   2.951666   3.095188   2.525578   1.099670
     8  H    2.169383   2.951666   2.525578   3.095188   1.099670
     9  X    1.485189   2.895025   2.322983   1.000000   1.718779
    10  O    3.429966   4.300107   3.932984   2.331883   4.242184
    11  H    4.086565   5.125563   4.420846   3.014354   4.858060
    12  H    4.086565   4.664679   4.702859   3.014354   4.858060
                    6          7          8          9         10
     6  H    0.000000
     7  H    1.788985   0.000000
     8  H    1.788985   1.786632   0.000000
     9  X    1.879436   1.851715   2.794983   0.000000
    10  O    4.258187   4.234165   5.284770   2.537258   0.000000
    11  H    4.687849   4.942989   5.904182   3.175898   0.957200
    12  H    4.974784   4.668157   5.897730   3.175898   0.957200
                   11         12
    11  H    0.000000
    12  H    1.513901   0.000000
                           Interatomic angles:
      Cl2-C1-H3=106.1207      Cl2-C1-H4=106.1207       H3-C1-H4=109.3662
      Cl2-H3-H4= 67.7252      Cl2-C1-C5=110.7818       H3-C1-C5=112.058 
      Cl2-H3-C5= 74.1792       H4-C1-C5=112.058       Cl2-H4-C5= 74.1792
       H4-H3-C5= 65.7886      Cl2-C1-H6=139.6456       H3-C1-H6= 96.7033
      Cl2-H3-H6= 99.0305       H4-C1-H6= 96.7033      Cl2-H4-H6= 99.0305
       H4-H3-H6= 69.2577       C1-C5-H6=109.3861      Cl2-C5-H6=147.4275
       H3-C5-H6= 94.8962       H4-C5-H6= 94.8962      Cl2-C1-H7= 95.3201
       H3-C1-H7=140.3472      H3-Cl2-H7= 70.2312       H4-C1-H7= 95.6195
      Cl2-H4-H7= 74.1862       H3-H4-H7= 89.9391       C1-C5-H7=110.7245
      Cl2-C5-H7= 89.6022       H3-C5-H7=138.4759       H4-C5-H7= 94.7255
       C1-H6-H7= 65.9926      Cl2-H7-H6=100.6536       H3-H6-H7= 89.8695
       H4-H7-H6= 69.4049       H6-C5-H7=108.6502      Cl2-C1-H8= 95.3201
       H3-C1-H8= 95.6195      Cl2-H3-H8= 74.1862       H4-C1-H8=140.3472
      H4-Cl2-H8= 70.2312       H4-H3-H8= 89.9391       C1-C5-H8=110.7245
      Cl2-C5-H8= 89.6022       H3-C5-H8= 94.7255       H4-C5-H8=138.4759
       C1-H6-H8= 65.9926      Cl2-H8-H6=100.6536       H3-H8-H6= 69.4049
       H4-H6-H8= 89.8695       H6-C5-H8=108.6502       C1-H7-H8= 65.6831
      Cl2-H7-H8= 72.3833       H3-H8-H7= 90.0609       H4-H7-H8= 90.0609
       H7-C5-H8=108.6521       H6-H7-H8= 60.0435      Cl2-C1-X9=122.6028
       H3-C1-X9=127.4793      Cl2-H3-X9= 76.2911       C1-H4-X9= 90.    
      Cl2-H4-X9=112.2957       H3-H4-X9=109.3072       C5-C1-X9= 69.7345
      Cl2-C5-X9= 77.0376       H3-C5-X9= 71.9157       H4-X9-C5=103.7869
       C1-X9-H6= 78.6795      Cl2-X9-H6=100.3323       H3-X9-H6= 73.1696
       H4-X9-H6=119.7998       H6-C5-X9= 80.3151       C1-X9-H7= 80.2823
      Cl2-X9-H7= 73.2066       H3-X9-H7= 95.0353       H4-X9-H7=121.7663
       H7-C5-X9= 78.794        H6-H7-X9= 62.1311       H8-C1-X9= 98.0279
      Cl2-X9-H8= 62.4671       H8-H3-X9= 70.2612       H4-X9-H8= 97.8994
       H8-C5-X9=164.83         H8-H6-X9= 99.235        H8-H7-X9=100.37  
      C1-H4-O10=180.         Cl2-H4-O10=132.6256      H3-H4-O10=144.6831
      C5-H4-O10=139.8206      H6-H4-O10=122.2393      H7-H4-O10=121.2583
      C1-X9-O10=114.4651     Cl2-X9-O10=104.4749      H3-X9-O10=107.9578
      X9-H4-O10= 90.          C5-X9-O10=170.5754      H6-X9-O10=148.851 
      H7-X9-O10=149.0854      H8-X9-O10=164.6798      C1-H4-H11=165.4565
     Cl2-H4-H11=144.4708      H3-H4-H11=132.1241      C5-H4-H11=137.6928
      H6-H4-H11=115.1805      H7-H4-H11=126.0869      X9-H4-H11= 90.    
     H4-O10-H11=127.74       X9-O10-H11=124.2313      C1-H4-H12=165.4565
     Cl2-H4-H12=119.8144      H3-H4-H12=155.3543      C5-H4-H12=137.6928
      H6-H4-H12=127.3912      H7-H4-H12=114.5526      X9-H4-H12= 90.    
     H4-O10-H12=127.74       X9-O10-H12=124.2313     H4-H12-H11= 75.4565
    H11-O10-H12=104.52  
 Stoichiometry    C2H7ClO
 Framework group  C1[X(C2H7ClO)]
 Deg. of freedom    27
 Full point group                 C1
 Largest Abelian subgroup         C1      NOp   1
 Largest concise Abelian subgroup C1      NOp   1
                         Standard orientation:                         
 ---------------------------------------------------------------------
 Center     Atomic     Atomic              Coordinates (Angstroms)
 Number     Number      Type              X           Y           Z
 ---------------------------------------------------------------------
    1          6             0       -0.349041    0.443894    0.494782
    2         17             0       -1.251243   -1.015656   -0.082733
    3          1             0       -0.532727    0.508024    1.575492
    4          1             0        0.714339    0.234750    0.317950
    5          6             0       -0.815414    1.691865   -0.238900
    6          1             0       -0.252238    2.565129    0.129816
    7          1             0       -0.644082    1.594140   -1.320737
    8          1             0       -1.887413    1.866596   -0.066962
    9          8             0        2.972525   -0.209387   -0.057570
   10          1             0        3.722850    0.100887    0.449356
   11          1             0        3.356932   -0.742839   -0.753194
 ---------------------------------------------------------------------
 Rotational constants (GHZ):      5.3145006      2.0641808      1.5705100

 **********************************************************************

            Population analysis using the SCF density.

 **********************************************************************

 Orbital symmetries:
       Occupied  (A) (A) (A) (A) (A) (A) (A) (A) (A) (A) (A) (A)
                 (A) (A) (A) (A) (A) (A) (A) (A) (A) (A)
       Virtual   (A) (A) (A) (A) (A) (A) (A) (A) (A) (A) (A) (A)
                 (A) (A) (A) (A) (A) (A) (A) (A) (A) (A) (A) (A)
                 (A) (A) (A) (A) (A) (A) (A) (A) (A) (A) (A) (A)
                 (A) (A) (A) (A) (A) (A) (A) (A) (A) (A) (A) (A)
                 (A) (A) (A) (A) (A) (A) (A) (A) (A) (A) (A) (A)
                 (A) (A) (A) (A) (A) (A) (A) (A) (A) (A) (A) (A)
                 (A) (A) (A) (A) (A) (A) (A) (A) (A) (A) (A) (A)
                 (A) (A) (A) (A) (A) (A) (A) (A) (A) (A) (A) (A)
                 (A) (A) (A) (A) (A) (A) (A) (A) (A) (A) (A) (A)
                 (A) (A) (A) (A) (A) (A) (A) (A) (A) (A) (A) (A)
                 (A) (A) (A) (A) (A) (A) (A) (A) (A) (A) (A) (A)
                 (A) (A) (A) (A) (A)
 The electronic state is 1-A.
 Alpha  occ. eigenvalues -- -104.80458 -20.58881 -11.28614 -11.23355 -10.53078
 Alpha  occ. eigenvalues --   -7.99837  -7.99535  -7.99530  -1.36928  -1.11846
 Alpha  occ. eigenvalues --   -0.98643  -0.82658  -0.73150  -0.63542  -0.60227
 Alpha  occ. eigenvalues --   -0.59109  -0.54408  -0.52200  -0.51261  -0.49003
 Alpha  occ. eigenvalues --   -0.41838  -0.41641
 Alpha virt. eigenvalues --    0.02707   0.04536   0.05025   0.05903   0.06847
 Alpha virt. eigenvalues --    0.07444   0.09776   0.10726   0.13198   0.14664
 Alpha virt. eigenvalues --    0.15511   0.16620   0.17572   0.18139   0.18487
 Alpha virt. eigenvalues --    0.19560   0.20194   0.20701   0.22102   0.22529
 Alpha virt. eigenvalues --    0.22755   0.25807   0.28821   0.29139   0.30145
 Alpha virt. eigenvalues --    0.32042   0.32726   0.35080   0.36450   0.37840
 Alpha virt. eigenvalues --    0.38389   0.39205   0.41055   0.42063   0.44381
 Alpha virt. eigenvalues --    0.44978   0.45455   0.46796   0.47993   0.48830
 Alpha virt. eigenvalues --    0.50015   0.51444   0.53847   0.54713   0.56038
 Alpha virt. eigenvalues --    0.56852   0.57621   0.59763   0.60075   0.62727
 Alpha virt. eigenvalues --    0.63518   0.64745   0.66303   0.66643   0.67469
 Alpha virt. eigenvalues --    0.68158   0.71250   0.71718   0.72176   0.73902
 Alpha virt. eigenvalues --    0.74556   0.77899   0.78699   0.83228   0.86311
 Alpha virt. eigenvalues --    0.88002   0.89503   0.92467   0.93277   0.95390
 Alpha virt. eigenvalues --    1.03740   1.06056   1.07743   1.10473   1.13294
 Alpha virt. eigenvalues --    1.13812   1.16214   1.17537   1.22099   1.24680
 Alpha virt. eigenvalues --    1.25764   1.30627   1.34241   1.37169   1.42818
 Alpha virt. eigenvalues --    1.46643   1.47179   1.48622   1.50221   1.50797
 Alpha virt. eigenvalues --    1.53690   1.57073   1.59651   1.62942   1.66604
 Alpha virt. eigenvalues --    1.77185   1.82112   1.82880   1.89302   1.91470
 Alpha virt. eigenvalues --    1.97009   2.00225   2.00814   2.01746   2.03050
 Alpha virt. eigenvalues --    2.07226   2.11901   2.14742   2.14905   2.16518
 Alpha virt. eigenvalues --    2.22169   2.23561   2.26420   2.31446   2.36223
 Alpha virt. eigenvalues --    2.42384   2.48117   2.49156   2.49639   2.50061
 Alpha virt. eigenvalues --    2.57638   2.63874   2.66462   2.71478   2.79571
 Alpha virt. eigenvalues --    2.83805   2.88941   2.93251   2.97792   3.00818
 Alpha virt. eigenvalues --    3.07345   3.13164   3.69174   3.71828   3.81367
 Alpha virt. eigenvalues --    4.07753   4.33958
          Condensed to atoms (all electrons):
              1          2          3          4          5          6
     1  C    4.891142   0.334296   0.341925   0.258057   0.497455  -0.014155
     2  Cl   0.334296  17.229277  -0.101548  -0.146433  -0.107401   0.023813
     3  H    0.341925  -0.101548   0.948817  -0.185302  -0.014242  -0.024816
     4  H    0.258057  -0.146433  -0.185302   1.151933  -0.035689  -0.035402
     5  C    0.497455  -0.107401  -0.014242  -0.035689   4.218618   0.352097
     6  H   -0.014155   0.023813  -0.024816  -0.035402   0.352097   0.946228
     7  H   -0.063277  -0.029349   0.048027  -0.069650   0.366776  -0.109524
     8  H   -0.066856  -0.028968  -0.055981   0.055863   0.377075  -0.123465
     9  O   -0.035940   0.007073   0.000872  -0.009057   0.011005   0.001025
    10  H    0.003186   0.000297   0.000552   0.000350  -0.001114  -0.000037
    11  H    0.001496  -0.000777   0.000058   0.003351  -0.001181  -0.000208
              7          8          9         10         11
     1  C   -0.063277  -0.066856  -0.035940   0.003186   0.001496
     2  Cl  -0.029349  -0.028968   0.007073   0.000297  -0.000777
     3  H    0.048027  -0.055981   0.000872   0.000552   0.000058
     4  H   -0.069650   0.055863  -0.009057   0.000350   0.003351
     5  C    0.366776   0.377075   0.011005  -0.001114  -0.001181
     6  H   -0.109524  -0.123465   0.001025  -0.000037  -0.000208
     7  H    0.983654  -0.125237   0.000742   0.000067  -0.000116
     8  H   -0.125237   0.989969  -0.000436  -0.000057   0.000062
     9  O    0.000742  -0.000436   7.691808   0.350677   0.348489
    10  H    0.000067  -0.000057   0.350677   0.514283  -0.038165
    11  H   -0.000116   0.000062   0.348489  -0.038165   0.513662
 Mulliken atomic charges:
              1
     1  C   -0.147331
     2  Cl  -0.180279
     3  H    0.041638
     4  H    0.011979
     5  C    0.336601
     6  H   -0.015557
     7  H   -0.002114
     8  H   -0.021970
     9  O   -0.366256
    10  H    0.169960
    11  H    0.173329
 Sum of Mulliken charges=   0.00000
 Atomic charges with hydrogens summed into heavy atoms:
              1
     1  C   -0.093714
     2  Cl  -0.180279
     3  H    0.000000
     4  H    0.000000
     5  C    0.296960
     6  H    0.000000
     7  H    0.000000
     8  H    0.000000
     9  O   -0.022967
    10  H    0.000000
    11  H    0.000000
 Sum of Mulliken charges=   0.00000
 Electronic spatial extent (au):  <R**2>=   739.4794
 Charge=     0.0000 electrons
 Dipole moment (field-independent basis, Debye):
    X=     3.4990    Y=     1.6140    Z=     0.3058  Tot=     3.8654
 Quadrupole moment (field-independent basis, Debye-Ang):
   XX=   -22.1353   YY=   -33.8900   ZZ=   -31.8353
   XY=    -3.1889   XZ=    -1.0075   YZ=     2.0139
 Traceless Quadrupole moment (field-independent basis, Debye-Ang):
   XX=     7.1516   YY=    -4.6031   ZZ=    -2.5485
   XY=    -3.1889   XZ=    -1.0075   YZ=     2.0139
 Octapole moment (field-independent basis, Debye-Ang**2):
  XXX=    78.3427  YYY=    -3.7912  ZZZ=     0.1237  XYY=     5.6296
  XXY=    -5.1227  XXZ=    -1.2831  XZZ=     8.6066  YZZ=    -1.3266
  YYZ=    -1.5340  XYZ=     4.6411
 Hexadecapole moment (field-independent basis, Debye-Ang**3):
 XXXX=  -306.8156 YYYY=  -272.7952 ZZZZ=   -61.8109 XXXY=   -22.4677
 XXXZ=     0.1498 YYYX=     2.7512 YYYZ=     6.1833 ZZZX=    -4.7201
 ZZZY=     2.0527 XXYY=  -134.1449 XXZZ=   -92.2786 YYZZ=   -57.1540
 XXYZ=    20.3471 YYXZ=    -1.8281 ZZXY=    -3.3453
 N-N= 1.549774188742D+02 E-N=-1.767903788010D+03  KE= 6.139281735152D+02
 1\1\GINC-N082\FOpt\RMP2-FC\Aug-CC-pVDZ\C2H7Cl1O1\FYLIN\28-Mar-2016\1\\
 #MP2/aug-cc-pVDZ Opt=Z-matrix\\C1H...OHH 90.0 degrees, mp2/aug-cc-pVDZ
 \\0,1\C,0,0.,0.82237,0.\Cl,0,0.825357,-0.789016,0.\H,0,0.356564,1.3475
 68,0.896\H,0,0.356564,1.347568,-0.896\C,0,-1.511627,0.65442,0.\H,0,-1.
 990226,1.647724,0.\H,0,-1.842105,0.104833,-0.893316\H,0,-1.842105,0.10
 4833,0.893316\X,4,1.,1,90.,5,0.,0\O,4,roh,9,90.,1,180.,0\H,10,0.9572,4
 ,127.74,9,90.,0\H,10,0.9572,4,127.74,9,-90.,0\\roh=2.33188315\\Version
 =AM64L-G03RevD.02\State=1-A\HF=-614.2078132\MP2=-614.8814768\RMSD=3.56
 9e-09\RMSF=2.994e-03\Thermal=0.\Dipole=-0.1522853,1.1814545,-0.7324358
 \PG=C01 [X(C2H7Cl1O1)]\\@


 OF ALL THE WONDERS OF THE UNIVERSE, THE GREATEST IS MAN.

                                    -- ARISTOTLE
 Job cpu time:  0 days  0 hours 21 minutes 51.5 seconds.
 File lengths (MBytes):  RWF=    906 Int=      0 D2E=      0 Chk=     12 Scr=      1
 Normal termination of Gaussian 03 at Mon Mar 28 16:58:41 2016.
