 Entering Gaussian System, Link 0=g03
 Initial command:
 /opt/mackerell/apps/gaussian/g03/l1.exe /tmp/fylin/gauss23634/Gau-23637.inp -scrdir=/tmp/fylin/gauss23634/
 Entering Link 1 = /opt/mackerell/apps/gaussian/g03/l1.exe PID=     23639.
  
 Copyright (c) 1988,1990,1992,1993,1995,1998,2003,2004, Gaussian, Inc.
                  All Rights Reserved.
  
 This is the Gaussian(R) 03 program.  It is based on the
 the Gaussian(R) 98 system (copyright 1998, Gaussian, Inc.),
 the Gaussian(R) 94 system (copyright 1995, Gaussian, Inc.),
 the Gaussian 92(TM) system (copyright 1992, Gaussian, Inc.),
 the Gaussian 90(TM) system (copyright 1990, Gaussian, Inc.),
 the Gaussian 88(TM) system (copyright 1988, Gaussian, Inc.),
 the Gaussian 86(TM) system (copyright 1986, Carnegie Mellon
 University), and the Gaussian 82(TM) system (copyright 1983,
 Carnegie Mellon University). Gaussian is a federally registered
 trademark of Gaussian, Inc.
  
 This software contains proprietary and confidential information,
 including trade secrets, belonging to Gaussian, Inc.
  
 This software is provided under written license and may be
 used, copied, transmitted, or stored only in accord with that
 written license.
  
 The following legend is applicable only to US Government
 contracts under FAR:
  
                    RESTRICTED RIGHTS LEGEND
  
 Use, reproduction and disclosure by the US Government is
 subject to restrictions as set forth in subparagraphs (a)
 and (c) of the Commercial Computer Software - Restricted
 Rights clause in FAR 52.227-19.
  
 Gaussian, Inc.
 340 Quinnipiac St., Bldg. 40, Wallingford CT 06492
  
  
 ---------------------------------------------------------------
 Warning -- This program may not be used in any manner that
 competes with the business of Gaussian, Inc. or will provide
 assistance to any competitor of Gaussian, Inc.  The licensee
 of this program is prohibited from giving any competitor of
 Gaussian, Inc. access to this program.  By using this program,
 the user acknowledges that Gaussian, Inc. is engaged in the
 business of creating and licensing software in the field of
 computational chemistry and represents and warrants to the
 licensee that it is not a competitor of Gaussian, Inc. and that
 it will not use this program in any manner prohibited above.
 ---------------------------------------------------------------
  

 Cite this work as:
 Gaussian 03, Revision D.02,
 M. J. Frisch, G. W. Trucks, H. B. Schlegel, G. E. Scuseria, 
 M. A. Robb, J. R. Cheeseman, J. A. Montgomery, Jr., T. Vreven, 
 K. N. Kudin, J. C. Burant, J. M. Millam, S. S. Iyengar, J. Tomasi, 
 V. Barone, B. Mennucci, M. Cossi, G. Scalmani, N. Rega, 
 G. A. Petersson, H. Nakatsuji, M. Hada, M. Ehara, K. Toyota, 
 R. Fukuda, J. Hasegawa, M. Ishida, T. Nakajima, Y. Honda, O. Kitao, 
 H. Nakai, M. Klene, X. Li, J. E. Knox, H. P. Hratchian, J. B. Cross, 
 V. Bakken, C. Adamo, J. Jaramillo, R. Gomperts, R. E. Stratmann, 
 O. Yazyev, A. J. Austin, R. Cammi, C. Pomelli, J. W. Ochterski, 
 P. Y. Ayala, K. Morokuma, G. A. Voth, P. Salvador, J. J. Dannenberg, 
 V. G. Zakrzewski, S. Dapprich, A. D. Daniels, M. C. Strain, 
 O. Farkas, D. K. Malick, A. D. Rabuck, K. Raghavachari, 
 J. B. Foresman, J. V. Ortiz, Q. Cui, A. G. Baboul, S. Clifford, 
 J. Cioslowski, B. B. Stefanov, G. Liu, A. Liashenko, P. Piskorz, 
 I. Komaromi, R. L. Martin, D. J. Fox, T. Keith, M. A. Al-Laham, 
 C. Y. Peng, A. Nanayakkara, M. Challacombe, P. M. W. Gill, 
 B. Johnson, W. Chen, M. W. Wong, C. Gonzalez, and J. A. Pople, 
 Gaussian, Inc., Wallingford CT, 2004.
 
 ******************************************
 Gaussian 03:  AM64L-G03RevD.02  1-Mar-2006
                28-Mar-2016 
 ******************************************
 %mem=16MW
 -----------------------------
 #MP2/aug-cc-pVDZ Opt=Z-matrix
 -----------------------------
 1/10=7,18=40,38=1/1,3;
 2/17=6,18=5,29=3,40=1/2;
 3/5=16,7=10,11=9,16=1,25=1,30=1/1,2,3;
 4//1;
 5/5=2,38=5/2;
 8/6=4,10=1/1;
 9/15=2,16=-3/6;
 10/5=1/2;
 6/7=2,8=2,9=2,10=2/1;
 7/12=2,29=1/1,2,3,16;
 1/10=7,18=40/3(3);
 2/29=3/2;
 6/7=2,8=2,9=2,10=2/1;
 99//99;
 2/29=3/2;
 3/5=16,7=10,11=9,16=1,25=1,30=1/1,2,3;
 4/5=5,16=3/1;
 5/5=2,38=5/2;
 8/6=4,10=1/1;
 9/15=2,16=-3/6;
 10/5=1/2;
 7/12=2/1,2,3,16;
 1/18=40/3(-8);
 2/29=3/2;
 6/7=2,8=2,9=2,10=2/1;
 99//99;
 ---------------------------------------
 C2H...OHH 90.0 degrees, mp2/aug-cc-pVDZ
 ---------------------------------------
 Symbolic Z-matrix:
 Charge =  0 Multiplicity = 1
 C1                    0.17303  -1.22654   0. 
 H1                   -0.38701  -2.16486   0. 
 C2                    1.58008  -1.2172    0. 
 H2                    2.12248  -2.16724   0. 
 C3                    2.28666   0.        0. 
 H3                    3.38009   0.        0. 
 C4                    1.58008   1.2172    0. 
 H4                    2.12248   2.16724   0. 
 C5                    0.17303   1.22654   0. 
 H5                   -0.38701   2.16486   0. 
 C6                   -0.51255   0.        0. 
 CL6                  -2.26665   0.        0. 
 x                    H2    1.       C2    90.      C3    0.       0
 o1w                  H2   roh      x     90.      C2    180.     0
 h1w                  o1w   0.9572   H2    127.74   x     90.      0
 h2w                  o1w   0.9572   H2    127.74   x    -90.      0
       Variables:
  roh                   2.1                      
 

 GradGradGradGradGradGradGradGradGradGradGradGradGradGradGradGradGradGrad
 Berny optimization.
 Initialization pass.
                       ----------------------------
                       !    Initial Parameters    !
                       ! (Angstroms and Degrees)  !
 ----------------------                            ----------------------
 !      Name          Value   Derivative information (Atomic Units)     !
 ------------------------------------------------------------------------
 !       roh         2.1      estimate D2E/DX2                          !
 ------------------------------------------------------------------------
 Trust Radius=3.00D-01 FncErr=1.00D-07 GrdErr=1.00D-07
 Number of steps in this run=  20 maximum allowed number of steps= 100.
 GradGradGradGradGradGradGradGradGradGradGradGradGradGradGradGradGradGrad

 ------------------------------------------------------------------------
                         Z-MATRIX (ANGSTROMS AND DEGREES)
 CD Cent Atom  N1     Length/X     N2    Alpha/Y     N3     Beta/Z      J
 ------------------------------------------------------------------------
   1   1  C     0   0.173030         -1.226543          0.000000
   2   2  H     0  -0.387009         -2.164857          0.000000
   3   3  C     0   1.580080         -1.217204          0.000000
   4   4  H     0   2.122475         -2.167243          0.000000
   5   5  C     0   2.286660          0.000000          0.000000
   6   6  H     0   3.380093          0.000000          0.000000
   7   7  C     0   1.580080          1.217204          0.000000
   8   8  H     0   2.122476          2.167243          0.000000
   9   9  C     0   0.173029          1.226543          0.000000
  10  10  H     0  -0.387010          2.164857          0.000000
  11  11  C     0  -0.512547          0.000000          0.000000
  12  12  Cl    0  -2.266648          0.000000          0.000000
  13      X     4   1.000000( 12)   3   90.000( 26)   5    0.000( 39)   0
  14  13  O     4   2.100000( 13)  13   90.000( 27)   3  180.000( 40)   0
  15  14  H    14   0.957200( 14)   4  127.740( 28)  13   90.000( 41)   0
  16  15  H    14   0.957200( 15)   4  127.740( 29)  13  -90.000( 42)   0
 ------------------------------------------------------------------------
                         Z-Matrix orientation:                         
 ---------------------------------------------------------------------
 Center     Atomic     Atomic              Coordinates (Angstroms)
 Number     Number      Type              X           Y           Z
 ---------------------------------------------------------------------
    1          6             0        0.173030   -1.226543    0.000000
    2          1             0       -0.387009   -2.164857    0.000000
    3          6             0        1.580080   -1.217204    0.000000
    4          1             0        2.122475   -2.167243    0.000000
    5          6             0        2.286660    0.000000    0.000000
    6          1             0        3.380093    0.000000    0.000000
    7          6             0        1.580080    1.217204    0.000000
    8          1             0        2.122476    2.167243    0.000000
    9          6             0        0.173029    1.226543    0.000000
   10          1             0       -0.387010    2.164857    0.000000
   11          6             0       -0.512547    0.000000    0.000000
   12         17             0       -2.266648    0.000000    0.000000
   13         -1             0        2.990909   -1.671438    0.000000
   14          8             0        3.163666   -3.990954    0.000000
   15          1             0        3.454149   -4.499754    0.756950
   16          1             0        3.454149   -4.499754   -0.756950
 ---------------------------------------------------------------------
                    Distance matrix (angstroms):
                    1          2          3          4          5
     1  C    0.000000
     2  H    1.092738   0.000000
     3  C    1.407081   2.183457   0.000000
     4  H    2.164544   2.509485   1.093968   0.000000
     5  C    2.443735   3.440220   1.407423   2.173453   0.000000
     6  H    3.433608   4.344843   2.172932   2.505703   1.093433
     7  C    2.819874   3.912515   2.434408   3.427634   1.407423
     8  H    3.913837   5.006456   3.427634   4.334486   2.173453
     9  C    2.453086   3.437330   2.819874   3.913837   2.443736
    10  H    3.437330   4.329714   3.912516   5.006456   3.440221
    11  C    1.405142   2.168494   2.420883   3.411786   2.799207
    12  Cl   2.730648   2.866993   4.034712   4.895032   4.553308
    13  X    2.852783   3.413765   1.482149   1.000000   1.813745
    14  O    4.072575   3.992734   3.193968   2.100000   4.086178
    15  H    4.696022   4.558422   3.854899   2.790508   4.709967
    16  H    4.696022   4.558422   3.854899   2.790508   4.709967
                    6          7          8          9         10
     6  H    0.000000
     7  C    2.172932   0.000000
     8  H    2.505702   1.093969   0.000000
     9  C    3.433608   1.407082   2.164546   0.000000
    10  H    4.344844   2.183458   2.509487   1.092738   0.000000
    11  C    3.892640   2.420883   3.411787   1.405141   2.168494
    12  Cl   5.646741   4.034712   4.895033   2.730647   2.866992
    13  X    1.716149   3.214761   3.935689   4.042121   5.111506
    14  O    3.996818   5.443588   6.245596   6.013833   7.106427
    15  H    4.563578   6.063721   6.840700   6.642981   7.729458
    16  H    4.563578   6.063721   6.840700   6.642981   7.729458
                   11         12         13         14         15
    11  C    0.000000
    12  Cl   1.754101   0.000000
    13  X    3.881740   5.516848   0.000000
    14  O    5.426072   6.739141   2.325941   0.000000
    15  H    6.046109   7.317669   2.964277   0.957200   0.000000
    16  H    6.046109   7.317669   2.964277   0.957200   1.513901
                   16
    16  H    0.000000
                           Interatomic angles:
       H2-C1-C3=121.2114       H2-C1-H4= 95.0716       C1-C3-H4=119.3426
       H2-C3-H4= 94.0002       H2-C1-C5=150.9578       C1-C3-C5=120.5152
       H2-C3-C5=145.8575       C1-H4-C5= 68.5728       H2-H4-C5= 94.2778
       H4-C3-C5=120.1422       C1-C3-H6=146.313        H2-C3-H6=171.6553
       C1-H4-H6= 94.3664       H2-H4-H6=120.0715       H4-C3-H6= 94.3445
       C1-C5-H6=149.8733       C3-C5-H6=120.1349       H4-C5-H6= 94.3323
       H2-C1-C7=179.1011       C1-C3-C7= 90.3803       H2-C3-C7=115.7226
       H4-C1-C7= 85.8272       H4-C3-C7=150.2771       C1-C5-C7= 89.9917
       C3-C5-C7=119.7302       H4-C5-C7=145.5328       C1-C7-H6= 85.865 
       C3-H6-C7= 68.1347       H4-H6-C7= 93.9414       H6-C5-C7=120.1349
       C1-C5-H8=115.7944       C3-C5-H8=145.5328       H4-C5-H8=171.3354
       C3-H6-H8= 93.9414       H4-H6-H8=119.7481       H6-C5-H8= 94.3323
       C1-C7-H8=179.7906       C3-C7-H8=150.2771       C5-C7-H8=120.1422
       H6-C7-H8= 94.3444       H2-C1-C9=149.1688       C3-C1-C9= 89.6197
       H2-C3-C9= 85.7903       H4-C1-C9=115.7595       H4-C3-C9=179.7905
       C1-C5-C9= 60.2533       C3-C5-C9= 89.9917       H4-C5-C9=115.7943
       H6-C3-C9= 85.865        H6-C5-C9=149.8733       C1-C9-C7= 89.6197
       C3-C7-C9= 90.3803       C5-C7-C9=120.5152       H6-C7-C9=146.313 
       C1-C9-H8=115.7595       C3-C9-H8= 85.8272       C5-H8-C9= 68.5728
       H6-H8-C9= 94.3664       H8-C7-C9=119.3426      C1-C7-H10= 85.7903
      C3-C7-H10=115.7226      C5-C7-H10=145.8575      H6-C7-H10=171.6553
      C5-H8-H10= 94.2778      H6-H8-H10=120.0714      H8-C7-H10= 94.0003
      C1-C9-H10=149.1689      C3-C9-H10=179.1012      C5-C9-H10=150.9578
      C7-C9-H10=121.2114      H8-C9-H10= 95.0716      H2-C1-C11=119.9658
      C3-C1-C11=118.8228      C3-H2-C11= 67.5962      H4-C1-C11=144.9626
      H4-H2-C11= 93.3733      H4-C3-C11=149.9078      C5-C1-C11= 89.0764
      H2-C11-C5= 86.6812      C5-C3-C11= 89.9499      H4-C5-C11= 85.6677
      H6-C3-C11=115.7477      H6-C5-C11=180.          C1-C11-C7= 90.982 
      H2-C11-C7=116.8662      C3-C11-C7= 60.37        C5-C7-C11= 89.9499
      H6-C7-C11=115.7477      H8-C5-C11= 85.6677      H8-C7-C11=149.9079
      C1-C11-C9=121.594       H2-C11-C9=147.4782      C3-C11-C9= 90.982 
      C5-C9-C11= 89.0763      C7-C9-C11=118.8227      H8-C9-C11=144.9625
     C1-C11-H10=147.4782     H2-C11-H10=173.3624     C3-C11-H10=116.8662
     C5-C11-H10= 86.6812     C7-H10-C11= 67.5962     H8-H10-C11= 93.3733
     H10-C9-C11=119.9659     H2-C1-Cl12= 85.8597     C3-C1-Cl12=152.9288
     C3-H2-Cl12=105.2435     H4-C1-Cl12=179.0687     H4-H2-Cl12=131.0207
     C5-C1-Cl12=123.1825     C7-C1-Cl12= 93.2414     C1-C9-Cl12= 63.3091
     H2-Cl12-C9= 75.7247     C3-C9-Cl12= 93.2414     C5-C9-Cl12=123.1825
     C7-C9-Cl12=152.9288     H8-C9-Cl12=179.0686    C1-Cl12-H10= 75.7247
    H2-Cl12-H10= 98.0677    C7-H10-Cl12=105.2435    H8-H10-Cl12=131.0206
    H10-C9-Cl12= 85.8597    C1-C11-Cl12=119.203     H2-C11-Cl12= 93.3188
    C3-C11-Cl12=149.815     C5-C11-Cl12=180.        C7-C11-Cl12=149.815 
    C9-C11-Cl12=119.203    H10-C11-Cl12= 93.3188      H2-C1-X13=111.8592
      C1-C3-X13=161.7731      H2-C3-X13=136.4308      C1-H4-X13=124.5176
      H2-H4-X13=150.2227      C3-H4-X13= 90.          C1-C5-X13= 82.7211
      C5-C3-X13= 77.7117      H4-X13-C5= 96.8751      C1-X13-H6= 94.1355
      C3-X13-H6= 85.2608      H4-X13-H6=132.8303      C5-H6-X13= 76.8926
      C7-C1-X13= 69.0397      C7-C3-X13=107.8466      C7-C5-X13=172.7129
      C7-H6-X13=110.9599      H8-C5-X13=161.4845      H8-H6-X13=136.7667
      C9-C1-X13= 98.972       C9-C3-X13=137.7789      C9-C5-X13=142.9744
     C11-C1-X13=128.175      C11-C3-X13=167.6616     C11-C5-X13=112.8478
    Cl12-C1-X13=162.2811      C1-H4-O14=145.4824      H2-H4-O14=119.7773
      C3-H4-O14=180.          C5-H4-O14=145.9448      H6-H4-O14=120.1512
     C1-X13-O14=103.2315     C3-X13-O14=112.1061     X13-H4-O14= 90.    
     C5-X13-O14=161.4117     H6-X13-O14=162.6331      C1-H4-H15=142.4723
      H2-H4-H15=118.5555      C3-H4-H15=164.2608      C5-H4-H15=142.8859
      H6-H4-H15=118.9111     C1-X13-H15=107.6475     C3-X13-H15=116.1784
     X13-H4-H15= 90.         C5-X13-H15=160.0433     H6-X13-H15=153.3593
     H4-O14-H15=127.74      X13-O14-H15=123.5471      C1-H4-H16=142.4723
      H2-H4-H16=118.5555      C3-H4-H16=164.2608      C5-H4-H16=142.8859
      H6-H4-H16=118.9111     C1-X13-H16=107.6475     C3-X13-H16=116.1784
     X13-H4-H16= 90.         C5-X13-H16=160.0433     H6-X13-H16=153.3593
     H4-O14-H16=127.74      X13-O14-H16=123.5471     H4-H15-H16= 74.2608
    X13-H15-H16= 75.2052    H15-O14-H16=104.52  
 Stoichiometry    C6H7ClO
 Framework group  CS[SG(C6H5ClO),X(H2)]
 Deg. of freedom    26
 Full point group                 CS
 Largest Abelian subgroup         CS      NOp   2
 Largest concise Abelian subgroup CS      NOp   2
                         Standard orientation:                         
 ---------------------------------------------------------------------
 Center     Atomic     Atomic              Coordinates (Angstroms)
 Number     Number      Type              X           Y           Z
 ---------------------------------------------------------------------
    1          6             0       -0.624673    0.300759    0.000000
    2          1             0       -1.562987    0.860798    0.000000
    3          6             0       -0.615334   -1.106291    0.000000
    4          1             0       -1.565373   -1.648686    0.000000
    5          6             0        0.601870   -1.812871    0.000000
    6          1             0        0.601870   -2.906304    0.000000
    7          6             0        1.819074   -1.106291    0.000000
    8          1             0        2.769113   -1.648687    0.000000
    9          6             0        1.828413    0.300760    0.000000
   10          1             0        2.766727    0.860799    0.000000
   11          6             0        0.601870    0.986336    0.000000
   12         17             0        0.601870    2.740437    0.000000
   13          8             0       -3.389084   -2.689877    0.000000
   14          1             0       -3.897884   -2.980360    0.756950
   15          1             0       -3.897884   -2.980360   -0.756950
 ---------------------------------------------------------------------
 Rotational constants (GHZ):      2.5089005      0.7906007      0.6028194
 Standard basis: Aug-CC-pVDZ (5D, 7F)
 There are   175 symmetry adapted basis functions of A'  symmetry.
 There are    76 symmetry adapted basis functions of A"  symmetry.
 Integral buffers will be    131072 words long.
 Raffenetti 1 integral format.
 Two-electron integral symmetry is turned on.
   251 basis functions,   461 primitive gaussians,   267 cartesian basis functions
    34 alpha electrons       34 beta electrons
       nuclear repulsion energy       383.2115975043 Hartrees.
 NAtoms=   15 NActive=   15 NUniq=   14 SFac= 8.61D-01 NAtFMM=   80 NAOKFM=F Big=F
 One-electron integrals computed using PRISM.
 NBasis=   251 RedAO= T  NBF=   175    76
 NBsUse=   251 1.00D-06 NBFU=   175    76
 Harris functional with IExCor=  205 diagonalized for initial guess.
 ExpMin= 2.97D-02 ExpMax= 1.28D+05 ExpMxC= 1.24D+03 IAcc=3 IRadAn=         5 AccDes= 0.00D+00
 HarFok:  IExCor= 205 AccDes= 0.00D+00 IRadAn=         5 IDoV=1
 ScaDFX=  1.000000  1.000000  1.000000  1.000000
 Initial guess orbital symmetries:
       Occupied  (A') (A') (A') (A') (A') (A') (A') (A') (A') (A')
                 (A') (A") (A') (A') (A') (A') (A') (A') (A') (A')
                 (A") (A') (A') (A') (A') (A') (A") (A') (A') (A')
                 (A") (A") (A') (A")
       Virtual   (A") (A") (A') (A') (A") (A') (A') (A') (A') (A")
                 (A') (A') (A") (A') (A") (A') (A") (A') (A') (A')
                 (A') (A') (A') (A') (A") (A') (A") (A') (A') (A")
                 (A') (A") (A') (A') (A') (A") (A') (A') (A') (A')
                 (A") (A') (A') (A') (A') (A") (A') (A') (A") (A')
                 (A') (A') (A") (A') (A') (A') (A") (A') (A") (A')
                 (A') (A') (A') (A") (A') (A") (A') (A") (A") (A')
                 (A') (A') (A") (A') (A') (A") (A') (A") (A') (A")
                 (A') (A') (A") (A') (A') (A") (A') (A') (A') (A")
                 (A') (A') (A') (A') (A') (A') (A") (A") (A') (A")
                 (A") (A') (A") (A') (A') (A') (A") (A') (A") (A')
                 (A') (A") (A") (A') (A") (A') (A") (A') (A") (A')
                 (A") (A") (A') (A') (A') (A') (A') (A") (A') (A")
                 (A') (A") (A') (A') (A') (A') (A") (A') (A') (A')
                 (A") (A') (A") (A') (A') (A") (A') (A') (A") (A')
                 (A') (A') (A") (A") (A') (A') (A') (A') (A") (A')
                 (A') (A') (A") (A') (A') (A") (A') (A') (A') (A")
                 (A") (A") (A") (A') (A") (A') (A') (A') (A') (A")
                 (A') (A") (A') (A') (A") (A') (A') (A') (A') (A")
                 (A") (A') (A") (A') (A') (A') (A') (A') (A") (A')
                 (A') (A') (A') (A') (A') (A') (A') (A') (A') (A')
                 (A") (A') (A') (A') (A') (A") (A')
 The electronic state of the initial guess is 1-A'.
 Requested convergence on RMS density matrix=1.00D-08 within 128 cycles.
 Requested convergence on MAX density matrix=1.00D-06.
 Requested convergence on             energy=1.00D-06.
 No special actions if energy rises.
 SCF Done:  E(RHF) =  -765.689879277     A.U. after   15 cycles
             Convg  =    0.3668D-08             -V/T =  2.0007
             S**2   =   0.0000
 ExpMin= 2.97D-02 ExpMax= 1.28D+05 ExpMxC= 1.24D+03 IAcc=3 IRadAn=         5 AccDes= 0.00D+00
 HarFok:  IExCor= 205 AccDes= 0.00D+00 IRadAn=         5 IDoV=1
 ScaDFX=  1.000000  1.000000  1.000000  1.000000
 Range of M.O.s used for correlation:    13   251
 NBasis=   251 NAE=    34 NBE=    34 NFC=    12 NFV=     0
 NROrb=    239 NOA=    22 NOB=    22 NVA=   217 NVB=   217

 **** Warning!!: The largest alpha MO coefficient is  0.13053996D+03

 Disk-based method using ON**2 memory for 22 occupieds at a time.
 Estimated scratch disk usage=   675095516 words.
 Actual    scratch disk usage=   673677276 words.
 JobTyp=1 Pass  1:  I=  13 to  34 NPSUse=  1 ParTrn=F ParDer=F DoDerP=T.
 Spin components of T(2) and E(2):
     alpha-alpha T2 =       0.6149212066D-01 E2=     -0.1574308209D+00
     alpha-beta  T2 =       0.3147934851D+00 E2=     -0.8671255614D+00
     beta-beta   T2 =       0.6149212066D-01 E2=     -0.1574308209D+00
 ANorm=    0.1199073695D+01
 E2 =    -0.1181987203D+01 EUMP2 =    -0.76687186648074D+03
 DoAtom=TTTTTTTTTTTTTTT
          Differentiating once with respect to electric field.
                with respect to dipole field.
          Differentiating once with respect to nuclear coordinates.
          There are   1 degrees of freedom in the 1st order CPHF.
 Petite list used in FoFDir.
 MinBra= 0 MaxBra= 2 Meth= 1.
 IRaf=       0 NMat=   1 IRICut=       1 DoRegI=T DoRafI=F ISym2E= 1 JSym2E=1.
     1 vectors were produced by pass  0.
 AX will form   1 AO Fock derivatives at one time.
     1 vectors were produced by pass  1.
     1 vectors were produced by pass  2.
     1 vectors were produced by pass  3.
     1 vectors were produced by pass  4.
     1 vectors were produced by pass  5.
     1 vectors were produced by pass  6.
     1 vectors were produced by pass  7.
     1 vectors were produced by pass  8.
     1 vectors were produced by pass  9.
     1 vectors were produced by pass 10.
     1 vectors were produced by pass 11.
     1 vectors were produced by pass 12.
     1 vectors were produced by pass 13.
     1 vectors were produced by pass 14.
     1 vectors were produced by pass 15.
 Inv2:  IOpt= 1 Iter= 1 AM= 3.43D-16 Conv= 1.00D-12.
 Inverted reduced A of dimension   16 with in-core refinement.
 End of Minotr Frequency-dependent properties file   721 does not exist.

 **********************************************************************

            Population analysis using the SCF density.

 **********************************************************************

 Orbital symmetries:
       Occupied  (A') (A') (A') (A') (A') (A') (A') (A') (A') (A')
                 (A') (A") (A') (A') (A') (A') (A') (A') (A') (A")
                 (A') (A') (A') (A') (A') (A') (A") (A') (A') (A')
                 (A") (A') (A") (A")
       Virtual   (A') (A') (A') (A") (A') (A') (A') (A") (A') (A")
                 (A") (A') (A') (A') (A") (A') (A") (A') (A') (A')
                 (A') (A') (A") (A') (A') (A") (A") (A") (A') (A')
                 (A") (A') (A') (A') (A') (A') (A') (A') (A") (A')
                 (A') (A') (A") (A') (A') (A') (A") (A') (A") (A')
                 (A') (A') (A') (A') (A') (A") (A") (A') (A') (A")
                 (A") (A') (A') (A') (A") (A") (A') (A') (A') (A")
                 (A') (A") (A') (A') (A") (A') (A') (A") (A') (A')
                 (A") (A') (A') (A') (A') (A') (A') (A") (A') (A")
                 (A") (A') (A') (A') (A") (A') (A") (A') (A') (A')
                 (A") (A") (A") (A') (A") (A') (A") (A') (A') (A')
                 (A") (A') (A") (A') (A") (A') (A") (A') (A") (A')
                 (A') (A") (A") (A') (A') (A') (A') (A') (A") (A")
                 (A') (A') (A") (A") (A') (A') (A') (A') (A') (A')
                 (A') (A") (A") (A') (A') (A') (A') (A') (A') (A")
                 (A") (A') (A") (A") (A') (A') (A') (A') (A") (A')
                 (A') (A") (A') (A') (A') (A") (A") (A') (A') (A")
                 (A') (A") (A') (A") (A') (A") (A') (A") (A') (A')
                 (A') (A") (A') (A') (A') (A") (A') (A') (A') (A")
                 (A') (A") (A") (A') (A') (A') (A') (A") (A') (A')
                 (A') (A') (A') (A') (A') (A') (A') (A') (A') (A')
                 (A") (A') (A') (A') (A') (A") (A')
 The electronic state is 1-A'.
 Alpha  occ. eigenvalues -- -104.83152 -20.59390 -11.30474 -11.25280 -11.25168
 Alpha  occ. eigenvalues --  -11.24999 -11.24547 -11.24239 -10.55748  -8.02527
 Alpha  occ. eigenvalues --   -8.02200  -8.02187  -1.37530  -1.17633  -1.10655
 Alpha  occ. eigenvalues --   -1.01785  -0.98524  -0.83277  -0.80689  -0.73704
 Alpha  occ. eigenvalues --   -0.69630  -0.64332  -0.63181  -0.61176  -0.58192
 Alpha  occ. eigenvalues --   -0.57466  -0.52993  -0.52785  -0.50218  -0.49683
 Alpha  occ. eigenvalues --   -0.45745  -0.44672  -0.33770  -0.32508
 Alpha virt. eigenvalues --    0.02463   0.04089   0.05046   0.05238   0.05711
 Alpha virt. eigenvalues --    0.06497   0.08152   0.10052   0.10304   0.10532
 Alpha virt. eigenvalues --    0.12798   0.12933   0.13933   0.14353   0.14876
 Alpha virt. eigenvalues --    0.15678   0.15838   0.16022   0.16452   0.17483
 Alpha virt. eigenvalues --    0.18022   0.18160   0.18564   0.19252   0.20013
 Alpha virt. eigenvalues --    0.20165   0.20737   0.21324   0.21721   0.22342
 Alpha virt. eigenvalues --    0.23261   0.24198   0.25654   0.26920   0.27785
 Alpha virt. eigenvalues --    0.29569   0.30926   0.31401   0.31826   0.33033
 Alpha virt. eigenvalues --    0.33623   0.34067   0.34101   0.35216   0.36474
 Alpha virt. eigenvalues --    0.37075   0.37760   0.38057   0.38653   0.39358
 Alpha virt. eigenvalues --    0.40497   0.41681   0.41843   0.42718   0.43819
 Alpha virt. eigenvalues --    0.44343   0.45511   0.45566   0.47256   0.47295
 Alpha virt. eigenvalues --    0.51614   0.51785   0.53256   0.54242   0.55070
 Alpha virt. eigenvalues --    0.55972   0.57408   0.58271   0.58633   0.59230
 Alpha virt. eigenvalues --    0.59502   0.60783   0.61433   0.62574   0.64957
 Alpha virt. eigenvalues --    0.65240   0.66174   0.66903   0.67656   0.68186
 Alpha virt. eigenvalues --    0.68624   0.69510   0.69973   0.71875   0.72751
 Alpha virt. eigenvalues --    0.73167   0.75135   0.75275   0.77376   0.77518
 Alpha virt. eigenvalues --    0.79215   0.80046   0.81040   0.84266   0.84430
 Alpha virt. eigenvalues --    0.86049   0.87365   0.87425   0.88719   0.90782
 Alpha virt. eigenvalues --    0.90938   0.93212   0.93812   0.94920   0.95681
 Alpha virt. eigenvalues --    0.95779   0.97426   0.97807   0.99212   0.99234
 Alpha virt. eigenvalues --    1.00610   1.02996   1.04614   1.05950   1.06729
 Alpha virt. eigenvalues --    1.12198   1.12719   1.14108   1.14534   1.17662
 Alpha virt. eigenvalues --    1.18061   1.20627   1.21825   1.23890   1.24672
 Alpha virt. eigenvalues --    1.29608   1.36052   1.39216   1.42753   1.42898
 Alpha virt. eigenvalues --    1.44409   1.48196   1.48261   1.49044   1.49109
 Alpha virt. eigenvalues --    1.49928   1.50990   1.55993   1.56768   1.57688
 Alpha virt. eigenvalues --    1.59679   1.59724   1.61426   1.62912   1.64437
 Alpha virt. eigenvalues --    1.66317   1.66884   1.68094   1.70516   1.70651
 Alpha virt. eigenvalues --    1.71305   1.72680   1.72998   1.75460   1.78952
 Alpha virt. eigenvalues --    1.82821   1.85395   1.88797   1.89668   1.92077
 Alpha virt. eigenvalues --    1.94379   1.94584   1.95484   1.96223   1.97565
 Alpha virt. eigenvalues --    2.00541   2.02010   2.04315   2.05443   2.05475
 Alpha virt. eigenvalues --    2.10032   2.10739   2.12719   2.13923   2.15462
 Alpha virt. eigenvalues --    2.19084   2.20366   2.23327   2.24361   2.26860
 Alpha virt. eigenvalues --    2.27092   2.28991   2.29286   2.33724   2.34140
 Alpha virt. eigenvalues --    2.37322   2.38323   2.41589   2.44118   2.49382
 Alpha virt. eigenvalues --    2.54092   2.60018   2.61325   2.67261   2.70751
 Alpha virt. eigenvalues --    2.77135   2.80388   2.82736   2.87911   2.91999
 Alpha virt. eigenvalues --    2.92666   2.95684   3.01290   3.08450   3.11653
 Alpha virt. eigenvalues --    3.14849   3.16556   3.31402   3.41706   3.55795
 Alpha virt. eigenvalues --    3.68678   3.77250   3.77617   3.86434   4.09618
 Alpha virt. eigenvalues --    4.34315   4.56130
          Condensed to atoms (all electrons):
              1          2          3          4          5          6
     1  C   10.545722  -0.683182  -3.062928   0.246365   2.350372  -0.138895
     2  H   -0.683182   1.675554   0.268141  -0.125127  -0.211730  -0.011974
     3  C   -3.062928   0.268141  10.202520  -0.732240  -3.246310   0.522077
     4  H    0.246365  -0.125127  -0.732240   2.147030   0.347234  -0.103079
     5  C    2.350372  -0.211730  -3.246310   0.347234  10.241902  -0.726214
     6  H   -0.138895  -0.011974   0.522077  -0.103079  -0.726214   1.675906
     7  C   -2.918506   0.123070   2.744302  -0.119963  -2.677793   0.358264
     8  H    0.117844   0.009620  -0.167359  -0.020492   0.412350  -0.063899
     9  C    1.026968  -0.002570  -3.069190   0.100854   2.077139  -0.167466
    10  H    0.025173  -0.012980   0.133031   0.013419  -0.209490  -0.011284
    11  C   -1.706409   0.425380   1.622869  -0.202036  -2.546567   0.092699
    12  Cl   0.057601  -0.087060  -0.240330   0.000708   0.233248   0.003118
    13  O    0.018213   0.003056  -0.044542  -0.084308  -0.009014   0.002677
    14  H    0.000322   0.000224   0.007461   0.001336   0.000024   0.000411
    15  H    0.000322   0.000224   0.007461   0.001336   0.000024   0.000411
              7          8          9         10         11         12
     1  C   -2.918506   0.117844   1.026968   0.025173  -1.706409   0.057601
     2  H    0.123070   0.009620  -0.002570  -0.012980   0.425380  -0.087060
     3  C    2.744302  -0.167359  -3.069190   0.133031   1.622869  -0.240330
     4  H   -0.119963  -0.020492   0.100854   0.013419  -0.202036   0.000708
     5  C   -2.677793   0.412350   2.077139  -0.209490  -2.546567   0.233248
     6  H    0.358264  -0.063899  -0.167466  -0.011284   0.092699   0.003118
     7  C    8.881717  -0.479304  -2.019224   0.136311   1.334781  -0.198348
     8  H   -0.479304   1.604361   0.315887  -0.088225  -0.218429   0.001690
     9  C   -2.019224   0.315887   9.570459  -0.669216  -1.679427   0.094470
    10  H    0.136311  -0.088225  -0.669216   1.642654   0.502574  -0.081552
    11  C    1.334781  -0.218429  -1.679427   0.502574   8.311455  -0.021735
    12  Cl  -0.198348   0.001690   0.094470  -0.081552  -0.021735  17.624883
    13  O   -0.007183  -0.000063   0.004058   0.000137  -0.010160   0.000199
    14  H   -0.001538   0.000024   0.000851  -0.000010  -0.000453   0.000038
    15  H   -0.001538   0.000024   0.000851  -0.000010  -0.000453   0.000038
             13         14         15
     1  C    0.018213   0.000322   0.000322
     2  H    0.003056   0.000224   0.000224
     3  C   -0.044542   0.007461   0.007461
     4  H   -0.084308   0.001336   0.001336
     5  C   -0.009014   0.000024   0.000024
     6  H    0.002677   0.000411   0.000411
     7  C   -0.007183  -0.001538  -0.001538
     8  H   -0.000063   0.000024   0.000024
     9  C    0.004058   0.000851   0.000851
    10  H    0.000137  -0.000010  -0.000010
    11  C   -0.010160  -0.000453  -0.000453
    12  Cl   0.000199   0.000038   0.000038
    13  O    7.798826   0.345548   0.345548
    14  H    0.345548   0.521114  -0.041180
    15  H    0.345548  -0.041180   0.521114
 Mulliken atomic charges:
              1
     1  C    0.121018
     2  H   -0.370644
     3  C    1.055037
     4  H   -0.471038
     5  C   -0.035175
     6  H   -0.432754
     7  C    0.844952
     8  H   -0.424029
     9  C    0.415557
    10  H   -0.380532
    11  C    0.095911
    12  Cl  -0.386969
    13  O   -0.362992
    14  H    0.165829
    15  H    0.165829
 Sum of Mulliken charges=   0.00000
 Atomic charges with hydrogens summed into heavy atoms:
              1
     1  C   -0.249627
     2  H    0.000000
     3  C    0.583999
     4  H    0.000000
     5  C   -0.467929
     6  H    0.000000
     7  C    0.420923
     8  H    0.000000
     9  C    0.035025
    10  H    0.000000
    11  C    0.095911
    12  Cl  -0.386969
    13  O   -0.031334
    14  H    0.000000
    15  H    0.000000
 Sum of Mulliken charges=   0.00000
 Electronic spatial extent (au):  <R**2>=  1746.0909
 Charge=     0.0000 electrons
 Dipole moment (field-independent basis, Debye):
    X=    -2.4428    Y=    -3.4749    Z=     0.0000  Tot=     4.2476
 Quadrupole moment (field-independent basis, Debye-Ang):
   XX=   -36.0380   YY=   -50.2096   ZZ=   -57.4365
   XY=     8.8146   XZ=     0.0000   YZ=     0.0000
 Traceless Quadrupole moment (field-independent basis, Debye-Ang):
   XX=    11.8567   YY=    -2.3149   ZZ=    -9.5418
   XY=     8.8146   XZ=     0.0000   YZ=     0.0000
 Octapole moment (field-independent basis, Debye-Ang**2):
  XXX=   -78.8631  YYY=   -40.5863  ZZZ=     0.0000  XYY=   -43.4477
  XXY=   -57.3793  XXZ=     0.0000  XZZ=   -18.8527  YZZ=    -6.5722
  YYZ=     0.0000  XYZ=     0.0000
 Hexadecapole moment (field-independent basis, Debye-Ang**3):
 XXXX=  -536.4945 YYYY= -1125.5564 ZZZZ=   -71.0361 XXXY=    29.9547
 XXXZ=     0.0000 YYYX=  -112.1542 YYYZ=     0.0000 ZZZX=     0.0000
 ZZZY=     0.0000 XXYY=  -160.3611 XXZZ=  -135.2105 YYZZ=  -204.4734
 XXYZ=     0.0000 YYXZ=     0.0000 ZZXY=   -44.3821
 N-N= 3.832115975043D+02 E-N=-2.576939295881D+03  KE= 7.651375339743D+02
 Symmetry A'   KE= 7.098771052880D+02
 Symmetry A"   KE= 5.526042868626D+01
 ***** Axes restored to original set *****
 -------------------------------------------------------------------
 Center     Atomic                   Forces (Hartrees/Bohr)
 Number     Number              X              Y              Z
 -------------------------------------------------------------------
    1          6          -0.000093736    0.001915059    0.000000000
    2          1           0.000190429   -0.000201376    0.000000000
    3          6           0.001487969   -0.002523201    0.000000000
    4          1          -0.001238890    0.002091554    0.000000000
    5          6          -0.001841699    0.000961066    0.000000000
    6          1           0.000080200   -0.000268884    0.000000000
    7          6           0.000570877    0.000435858    0.000000000
    8          1          -0.000116380    0.000330368    0.000000000
    9          6          -0.000337682    0.000129491    0.000000000
   10          1          -0.000036163    0.000049353    0.000000000
   11          6           0.000761161   -0.000150602    0.000000000
   12         17          -0.001118493    0.000193175    0.000000000
   13          8          -0.003895953    0.006966118    0.000000000
   14          1           0.002794181   -0.004963990    0.007035691
   15          1           0.002794181   -0.004963990   -0.007035691
 -------------------------------------------------------------------
 Cartesian Forces:  Max     0.007035691 RMS     0.002370679
 ------------------------------------------------------------------------
           Internal Coordinate Forces (Hartree/Bohr or radian)
 Cent Atom N1     Length/X     N2     Alpha/Y      N3      Beta/Z       J
 ------------------------------------------------------------------------
   1  C        -0.000094(   1)      0.001915(  17)      0.000000(  33)
   2  H         0.000190(   2)     -0.000201(  18)      0.000000(  34)
   3  C         0.001518(   3)     -0.002506(  19)      0.000000(  35)
   4  H         0.000423(   4)     -0.000888(  20)      0.000000(  36)
   5  C        -0.001842(   5)      0.000961(  21)      0.000000(  37)
   6  H         0.000080(   6)     -0.000269(  22)      0.000000(  38)
   7  C         0.000571(   7)      0.000436(  23)      0.000000(  39)
   8  H        -0.000116(   8)      0.000330(  24)      0.000000(  40)
   9  C        -0.000338(   9)      0.000129(  25)      0.000000(  41)
  10  H        -0.000036(  10)      0.000049(  26)      0.000000(  42)
  11  C         0.000761(  11)     -0.000151(  27)      0.000000(  43)
  12  Cl       -0.001118(  12)      0.000193(  28)      0.000000(  44)
      X     4   0.000000(  13)  3   0.000072(  29)  5   0.000000(  45)  0
  13  O     4   0.003411(  14) 13   0.000072(  30)  3   0.000000(  46)  0
  14  H    14   0.009050(  15)  4   0.000358(  31) 13   0.000050(  47)  0
  15  H    14   0.009050(  16)  4   0.000358(  32) 13  -0.000050(  48)  0
 ------------------------------------------------------------------------
 Internal  Forces:  Max     0.009050366 RMS     0.002021188

 GradGradGradGradGradGradGradGradGradGradGradGradGradGradGradGradGradGrad
 Berny optimization.
 Search for a local minimum.
 Step number   1 out of a maximum of  20
 All quantities printed in internal units (Hartrees-Bohrs-Radians)
 Second derivative matrix not updated -- first step.
 The second derivative matrix:
                          roh
           roh          0.03666
     Eigenvalues ---    0.03666
 RFO step:  Lambda=-3.14712149D-04.
 Linear search not attempted -- first point.
 Variable       Old X    -DE/DX   Delta X   Delta X   Delta X     New X
                                 (Linear)    (Quad)   (Total)
   roh        3.96842   0.00341   0.00000   0.09226   0.09226   4.06068
         Item               Value     Threshold  Converged?
 Maximum Force            0.003411     0.000450     NO 
 RMS     Force            0.003411     0.000300     NO 
 Maximum Displacement     0.092256     0.001800     NO 
 RMS     Displacement     0.092256     0.001200     NO 
 Predicted change in Energy=-1.586954D-04
 GradGradGradGradGradGradGradGradGradGradGradGradGradGradGradGradGradGrad

 ------------------------------------------------------------------------
                         Z-MATRIX (ANGSTROMS AND DEGREES)
 CD Cent Atom  N1     Length/X     N2    Alpha/Y     N3     Beta/Z      J
 ------------------------------------------------------------------------
   1   1  C     0   0.173030         -1.226543          0.000000
   2   2  H     0  -0.387009         -2.164857          0.000000
   3   3  C     0   1.580080         -1.217204          0.000000
   4   4  H     0   2.122475         -2.167243          0.000000
   5   5  C     0   2.286660          0.000000          0.000000
   6   6  H     0   3.380093          0.000000          0.000000
   7   7  C     0   1.580080          1.217204          0.000000
   8   8  H     0   2.122476          2.167243          0.000000
   9   9  C     0   0.173029          1.226543          0.000000
  10  10  H     0  -0.387010          2.164857          0.000000
  11  11  C     0  -0.512547          0.000000          0.000000
  12  12  Cl    0  -2.266648          0.000000          0.000000
  13      X     4   1.000000( 12)   3   90.000( 26)   5    0.000( 39)   0
  14  13  O     4   2.148820( 13)  13   90.000( 27)   3  180.000( 40)   0
  15  14  H    14   0.957200( 14)   4  127.740( 28)  13   90.000( 41)   0
  16  15  H    14   0.957200( 15)   4  127.740( 29)  13  -90.000( 42)   0
 ------------------------------------------------------------------------
                         Z-Matrix orientation:                         
 ---------------------------------------------------------------------
 Center     Atomic     Atomic              Coordinates (Angstroms)
 Number     Number      Type              X           Y           Z
 ---------------------------------------------------------------------
    1          6             0        0.173030   -1.226543    0.000000
    2          1             0       -0.387009   -2.164857    0.000000
    3          6             0        1.580080   -1.217204    0.000000
    4          1             0        2.122475   -2.167243    0.000000
    5          6             0        2.286660    0.000000    0.000000
    6          1             0        3.380093    0.000000    0.000000
    7          6             0        1.580080    1.217204    0.000000
    8          1             0        2.122476    2.167243    0.000000
    9          6             0        0.173029    1.226543    0.000000
   10          1             0       -0.387010    2.164857    0.000000
   11          6             0       -0.512547    0.000000    0.000000
   12         17             0       -2.266648    0.000000    0.000000
   13         -1             0        2.990909   -1.671438    0.000000
   14          8             0        3.187871   -4.033351    0.000000
   15          1             0        3.478354   -4.542151    0.756950
   16          1             0        3.478354   -4.542151   -0.756950
 ---------------------------------------------------------------------
                    Distance matrix (angstroms):
                    1          2          3          4          5
     1  C    0.000000
     2  H    1.092738   0.000000
     3  C    1.407081   2.183457   0.000000
     4  H    2.164544   2.509485   1.093968   0.000000
     5  C    2.443735   3.440220   1.407423   2.173453   0.000000
     6  H    3.433608   4.344843   2.172932   2.505703   1.093433
     7  C    2.819874   3.912515   2.434408   3.427634   1.407423
     8  H    3.913837   5.006456   3.427634   4.334486   2.173453
     9  C    2.453086   3.437330   2.819874   3.913837   2.443736
    10  H    3.437330   4.329714   3.912516   5.006456   3.440221
    11  C    1.405142   2.168494   2.420883   3.411786   2.799207
    12  Cl   2.730648   2.866993   4.034712   4.895032   4.553308
    13  X    2.852783   3.413765   1.482149   1.000000   1.813745
    14  O    4.119155   4.033737   3.242788   2.148820   4.132808
    15  H    4.742510   4.600601   3.902780   2.837529   4.756495
    16  H    4.742510   4.600601   3.902780   2.837529   4.756495
                    6          7          8          9         10
     6  H    0.000000
     7  C    2.172932   0.000000
     8  H    2.505702   1.093969   0.000000
     9  C    3.433608   1.407082   2.164546   0.000000
    10  H    4.344844   2.183458   2.509487   1.092738   0.000000
    11  C    3.892640   2.420883   3.411787   1.405141   2.168494
    12  Cl   5.646741   4.034712   4.895033   2.730647   2.866992
    13  X    1.716149   3.214761   3.935689   4.042121   5.111506
    14  O    4.037929   5.491204   6.291457   6.062652   7.155247
    15  H    4.605840   6.111185   6.886751   6.691485   7.778044
    16  H    4.605840   6.111185   6.886751   6.691485   7.778044
                   11         12         13         14         15
    11  C    0.000000
    12  Cl   1.754101   0.000000
    13  X    3.881740   5.516848   0.000000
    14  O    5.473665   6.783782   2.370111   0.000000
    15  H    6.093554   7.362687   3.008583   0.957200   0.000000
    16  H    6.093554   7.362687   3.008583   0.957200   1.513901
                   16
    16  H    0.000000
                           Interatomic angles:
       H2-C1-C3=121.2114       H2-C1-H4= 95.0716       C1-C3-H4=119.3426
       H2-C3-H4= 94.0002       H2-C1-C5=150.9578       C1-C3-C5=120.5152
       H2-C3-C5=145.8575       C1-H4-C5= 68.5728       H2-H4-C5= 94.2778
       H4-C3-C5=120.1422       C1-C3-H6=146.313        H2-C3-H6=171.6553
       C1-H4-H6= 94.3664       H2-H4-H6=120.0715       H4-C3-H6= 94.3445
       C1-C5-H6=149.8733       C3-C5-H6=120.1349       H4-C5-H6= 94.3323
       H2-C1-C7=179.1011       C1-C3-C7= 90.3803       H2-C3-C7=115.7226
       H4-C1-C7= 85.8272       H4-C3-C7=150.2771       C1-C5-C7= 89.9917
       C3-C5-C7=119.7302       H4-C5-C7=145.5328       C1-C7-H6= 85.865 
       C3-H6-C7= 68.1347       H4-H6-C7= 93.9414       H6-C5-C7=120.1349
       C1-C5-H8=115.7944       C3-C5-H8=145.5328       H4-C5-H8=171.3354
       C3-H6-H8= 93.9414       H4-H6-H8=119.7481       H6-C5-H8= 94.3323
       C1-C7-H8=179.7906       C3-C7-H8=150.2771       C5-C7-H8=120.1422
       H6-C7-H8= 94.3444       H2-C1-C9=149.1688       C3-C1-C9= 89.6197
       H2-C3-C9= 85.7903       H4-C1-C9=115.7595       H4-C3-C9=179.7905
       C1-C5-C9= 60.2533       C3-C5-C9= 89.9917       H4-C5-C9=115.7943
       H6-C3-C9= 85.865        H6-C5-C9=149.8733       C1-C9-C7= 89.6197
       C3-C7-C9= 90.3803       C5-C7-C9=120.5152       H6-C7-C9=146.313 
       C1-C9-H8=115.7595       C3-C9-H8= 85.8272       C5-H8-C9= 68.5728
       H6-H8-C9= 94.3664       H8-C7-C9=119.3426      C1-C7-H10= 85.7903
      C3-C7-H10=115.7226      C5-C7-H10=145.8575      H6-C7-H10=171.6553
      C5-H8-H10= 94.2778      H6-H8-H10=120.0714      H8-C7-H10= 94.0003
      C1-C9-H10=149.1689      C3-C9-H10=179.1012      C5-C9-H10=150.9578
      C7-C9-H10=121.2114      H8-C9-H10= 95.0716      H2-C1-C11=119.9658
      C3-C1-C11=118.8228      C3-H2-C11= 67.5962      H4-C1-C11=144.9626
      H4-H2-C11= 93.3733      H4-C3-C11=149.9078      C5-C1-C11= 89.0764
      H2-C11-C5= 86.6812      C5-C3-C11= 89.9499      H4-C5-C11= 85.6677
      H6-C3-C11=115.7477      H6-C5-C11=180.          C1-C11-C7= 90.982 
      H2-C11-C7=116.8662      C3-C11-C7= 60.37        C5-C7-C11= 89.9499
      H6-C7-C11=115.7477      H8-C5-C11= 85.6677      H8-C7-C11=149.9079
      C1-C11-C9=121.594       H2-C11-C9=147.4782      C3-C11-C9= 90.982 
      C5-C9-C11= 89.0763      C7-C9-C11=118.8227      H8-C9-C11=144.9625
     C1-C11-H10=147.4782     H2-C11-H10=173.3624     C3-C11-H10=116.8662
     C5-C11-H10= 86.6812     C7-H10-C11= 67.5962     H8-H10-C11= 93.3733
     H10-C9-C11=119.9659     H2-C1-Cl12= 85.8597     C3-C1-Cl12=152.9288
     C3-H2-Cl12=105.2435     H4-C1-Cl12=179.0687     H4-H2-Cl12=131.0207
     C5-C1-Cl12=123.1825     C7-C1-Cl12= 93.2414     C1-C9-Cl12= 63.3091
     H2-Cl12-C9= 75.7247     C3-C9-Cl12= 93.2414     C5-C9-Cl12=123.1825
     C7-C9-Cl12=152.9288     H8-C9-Cl12=179.0686    C1-Cl12-H10= 75.7247
    H2-Cl12-H10= 98.0677    C7-H10-Cl12=105.2435    H8-H10-Cl12=131.0206
    H10-C9-Cl12= 85.8597    C1-C11-Cl12=119.203     H2-C11-Cl12= 93.3188
    C3-C11-Cl12=149.815     C5-C11-Cl12=180.        C7-C11-Cl12=149.815 
    C9-C11-Cl12=119.203    H10-C11-Cl12= 93.3188      H2-C1-X13=111.8592
      C1-C3-X13=161.7731      H2-C3-X13=136.4308      C1-H4-X13=124.5176
      H2-H4-X13=150.2227      C3-H4-X13= 90.          C1-C5-X13= 82.7211
      C5-C3-X13= 77.7117      H4-X13-C5= 96.8751      C1-X13-H6= 94.1355
      C3-X13-H6= 85.2608      H4-X13-H6=132.8303      C5-H6-X13= 76.8926
      C7-C1-X13= 69.0397      C7-C3-X13=107.8466      C7-C5-X13=172.7129
      C7-H6-X13=110.9599      H8-C5-X13=161.4845      H8-H6-X13=136.7667
      C9-C1-X13= 98.972       C9-C3-X13=137.7789      C9-C5-X13=142.9744
     C11-C1-X13=128.175      C11-C3-X13=167.6616     C11-C5-X13=112.8478
    Cl12-C1-X13=162.2811      C1-H4-O14=145.4824      H2-H4-O14=119.7773
      C3-H4-O14=180.          C5-H4-O14=145.9448      H6-H4-O14=120.1512
     C1-X13-O14=103.7389     C3-X13-O14=112.6135     X13-H4-O14= 90.    
     C5-X13-O14=161.9191     H6-X13-O14=162.1257      C1-H4-H15=142.5697
      H2-H4-H15=118.5962      C3-H4-H15=164.5282      C5-H4-H15=142.9848
      H6-H4-H15=118.9523     C1-X13-H15=107.9894     C3-X13-H15=116.5288
     X13-H4-H15= 90.         C5-X13-H15=160.4276     H6-X13-H15=153.1984
     H4-O14-H15=127.74      X13-O14-H15=123.706       C1-H4-H16=142.5697
      H2-H4-H16=118.5962      C3-H4-H16=164.5282      C5-H4-H16=142.9848
      H6-H4-H16=118.9523     C1-X13-H16=107.9894     C3-X13-H16=116.5288
     X13-H4-H16= 90.         C5-X13-H16=160.4276     H6-X13-H16=153.1984
     H4-O14-H16=127.74      X13-O14-H16=123.706      H4-H15-H16= 74.5282
    X13-H15-H16= 75.428     H15-O14-H16=104.52  
 Stoichiometry    C6H7ClO
 Framework group  CS[SG(C6H5ClO),X(H2)]
 Deg. of freedom    26
 Full point group                 CS
 Largest Abelian subgroup         CS      NOp   2
 Largest concise Abelian subgroup CS      NOp   2
                         Standard orientation:                         
 ---------------------------------------------------------------------
 Center     Atomic     Atomic              Coordinates (Angstroms)
 Number     Number      Type              X           Y           Z
 ---------------------------------------------------------------------
    1          6             0       -0.618438    0.304318    0.000000
    2          1             0       -1.556752    0.864357    0.000000
    3          6             0       -0.609099   -1.102732    0.000000
    4          1             0       -1.559138   -1.645127    0.000000
    5          6             0        0.608105   -1.809312    0.000000
    6          1             0        0.608105   -2.902745    0.000000
    7          6             0        1.825309   -1.102732    0.000000
    8          1             0        2.775348   -1.645128    0.000000
    9          6             0        1.834648    0.304319    0.000000
   10          1             0        2.772962    0.864358    0.000000
   11          6             0        0.608105    0.989895    0.000000
   12         17             0        0.608105    2.743996    0.000000
   13          8             0       -3.425246   -2.710523    0.000000
   14          1             0       -3.934046   -3.001006    0.756950
   15          1             0       -3.934046   -3.001006   -0.756950
 ---------------------------------------------------------------------
 Rotational constants (GHZ):      2.4976353      0.7821398      0.5972460
 Standard basis: Aug-CC-pVDZ (5D, 7F)
 There are   175 symmetry adapted basis functions of A'  symmetry.
 There are    76 symmetry adapted basis functions of A"  symmetry.
 Integral buffers will be    131072 words long.
 Raffenetti 1 integral format.
 Two-electron integral symmetry is turned on.
   251 basis functions,   461 primitive gaussians,   267 cartesian basis functions
    34 alpha electrons       34 beta electrons
       nuclear repulsion energy       382.5920330796 Hartrees.
 NAtoms=   15 NActive=   15 NUniq=   14 SFac= 8.61D-01 NAtFMM=   80 NAOKFM=F Big=F
 One-electron integrals computed using PRISM.
 NBasis=   251 RedAO= T  NBF=   175    76
 NBsUse=   251 1.00D-06 NBFU=   175    76
 Initial guess read from the read-write file:
 Initial guess orbital symmetries:
       Occupied  (A') (A') (A') (A') (A') (A') (A') (A') (A') (A')
                 (A') (A") (A') (A') (A') (A') (A') (A') (A') (A")
                 (A') (A') (A') (A') (A') (A') (A") (A') (A') (A')
                 (A") (A') (A") (A")
       Virtual   (A') (A') (A') (A") (A') (A') (A') (A") (A') (A")
                 (A") (A') (A') (A') (A") (A') (A") (A') (A') (A')
                 (A') (A') (A") (A') (A') (A") (A") (A") (A') (A')
                 (A") (A') (A') (A') (A') (A') (A') (A') (A") (A')
                 (A') (A') (A") (A') (A') (A') (A") (A') (A") (A')
                 (A') (A') (A') (A') (A') (A") (A") (A') (A') (A")
                 (A") (A') (A') (A') (A") (A") (A') (A') (A') (A")
                 (A') (A") (A') (A') (A") (A') (A') (A") (A') (A')
                 (A") (A') (A') (A') (A') (A') (A') (A") (A') (A")
                 (A") (A') (A') (A') (A") (A') (A") (A') (A') (A')
                 (A") (A") (A") (A') (A") (A') (A") (A') (A') (A')
                 (A") (A') (A") (A') (A") (A') (A") (A') (A") (A')
                 (A') (A") (A") (A') (A') (A') (A') (A') (A") (A")
                 (A') (A') (A") (A") (A') (A') (A') (A') (A') (A')
                 (A') (A") (A") (A') (A') (A') (A') (A') (A') (A")
                 (A") (A') (A") (A") (A') (A') (A') (A') (A") (A')
                 (A') (A") (A') (A') (A') (A") (A") (A') (A') (A")
                 (A') (A") (A') (A") (A') (A") (A') (A") (A') (A')
                 (A') (A") (A') (A') (A') (A") (A') (A') (A') (A")
                 (A') (A") (A") (A') (A') (A') (A') (A") (A') (A')
                 (A') (A') (A') (A') (A') (A') (A') (A') (A') (A')
                 (A") (A') (A') (A') (A') (A") (A')
 Harris functional with IExCor=  205 diagonalized for initial guess.
 ExpMin= 2.97D-02 ExpMax= 1.28D+05 ExpMxC= 1.24D+03 IAcc=3 IRadAn=         5 AccDes= 0.00D+00
 HarFok:  IExCor= 205 AccDes= 0.00D+00 IRadAn=         5 IDoV=1
 ScaDFX=  1.000000  1.000000  1.000000  1.000000
 Requested convergence on RMS density matrix=1.00D-08 within 128 cycles.
 Requested convergence on MAX density matrix=1.00D-06.
 Requested convergence on             energy=1.00D-06.
 No special actions if energy rises.
 SCF Done:  E(RHF) =  -765.690356955     A.U. after   11 cycles
             Convg  =    0.7163D-08             -V/T =  2.0007
             S**2   =   0.0000
 ExpMin= 2.97D-02 ExpMax= 1.28D+05 ExpMxC= 1.24D+03 IAcc=3 IRadAn=         5 AccDes= 0.00D+00
 HarFok:  IExCor= 205 AccDes= 0.00D+00 IRadAn=         5 IDoV=1
 ScaDFX=  1.000000  1.000000  1.000000  1.000000
 Range of M.O.s used for correlation:    13   251
 NBasis=   251 NAE=    34 NBE=    34 NFC=    12 NFV=     0
 NROrb=    239 NOA=    22 NOB=    22 NVA=   217 NVB=   217

 **** Warning!!: The largest alpha MO coefficient is  0.13050478D+03

 Disk-based method using ON**2 memory for 22 occupieds at a time.
 Estimated scratch disk usage=   674634290 words.
 Actual    scratch disk usage=   673182258 words.
 JobTyp=1 Pass  1:  I=  13 to  34 NPSUse=  1 ParTrn=F ParDer=F DoDerP=T.
 Spin components of T(2) and E(2):
     alpha-alpha T2 =       0.6147387723D-01 E2=     -0.1573721524D+00
     alpha-beta  T2 =       0.3147936562D+00 E2=     -0.8670326902D+00
     beta-beta   T2 =       0.6147387723D-01 E2=     -0.1573721524D+00
 ANorm=    0.1199058552D+01
 E2 =    -0.1181776995D+01 EUMP2 =    -0.76687213395023D+03
 DoAtom=TTTTTTTTTTTTTTT
          Differentiating once with respect to electric field.
                with respect to dipole field.
          Differentiating once with respect to nuclear coordinates.
          There are   1 degrees of freedom in the 1st order CPHF.
 Petite list used in FoFDir.
 MinBra= 0 MaxBra= 2 Meth= 1.
 IRaf=       0 NMat=   1 IRICut=       1 DoRegI=T DoRafI=F ISym2E= 1 JSym2E=1.
     1 vectors were produced by pass  0.
 AX will form   1 AO Fock derivatives at one time.
     1 vectors were produced by pass  1.
     1 vectors were produced by pass  2.
     1 vectors were produced by pass  3.
     1 vectors were produced by pass  4.
     1 vectors were produced by pass  5.
     1 vectors were produced by pass  6.
     1 vectors were produced by pass  7.
     1 vectors were produced by pass  8.
     1 vectors were produced by pass  9.
     1 vectors were produced by pass 10.
     1 vectors were produced by pass 11.
     1 vectors were produced by pass 12.
     1 vectors were produced by pass 13.
     1 vectors were produced by pass 14.
     1 vectors were produced by pass 15.
 Inv2:  IOpt= 1 Iter= 1 AM= 5.15D-16 Conv= 1.00D-12.
 Inverted reduced A of dimension   16 with in-core refinement.
 End of Minotr Frequency-dependent properties file   721 does not exist.
 ***** Axes restored to original set *****
 -------------------------------------------------------------------
 Center     Atomic                   Forces (Hartrees/Bohr)
 Number     Number              X              Y              Z
 -------------------------------------------------------------------
    1          6          -0.000091206    0.001783932    0.000000000
    2          1           0.000198379   -0.000188116    0.000000000
    3          6           0.001510054   -0.002567199    0.000000000
    4          1          -0.000907266    0.001516537    0.000000000
    5          6          -0.001716897    0.000895762    0.000000000
    6          1           0.000063266   -0.000268596    0.000000000
    7          6           0.000527975    0.000395593    0.000000000
    8          1          -0.000108204    0.000309625    0.000000000
    9          6          -0.000327834    0.000130017    0.000000000
   10          1          -0.000034424    0.000046765    0.000000000
   11          6           0.000752945   -0.000137387    0.000000000
   12         17          -0.001066689    0.000181236    0.000000000
   13          8          -0.004339481    0.007742217    0.000000000
   14          1           0.002769691   -0.004920193    0.006985212
   15          1           0.002769691   -0.004920193   -0.006985212
 -------------------------------------------------------------------
 Cartesian Forces:  Max     0.007742217 RMS     0.002411228
 ------------------------------------------------------------------------
           Internal Coordinate Forces (Hartree/Bohr or radian)
 Cent Atom N1     Length/X     N2     Alpha/Y      N3      Beta/Z       J
 ------------------------------------------------------------------------
   1  C        -0.000091(   1)      0.001784(  17)      0.000000(  33)
   2  H         0.000198(   2)     -0.000188(  18)      0.000000(  34)
   3  C         0.001539(   3)     -0.002551(  19)      0.000000(  35)
   4  H         0.000264(   4)     -0.000598(  20)      0.000000(  36)
   5  C        -0.001717(   5)      0.000896(  21)      0.000000(  37)
   6  H         0.000063(   6)     -0.000269(  22)      0.000000(  38)
   7  C         0.000528(   7)      0.000396(  23)      0.000000(  39)
   8  H        -0.000108(   8)      0.000310(  24)      0.000000(  40)
   9  C        -0.000328(   9)      0.000130(  25)      0.000000(  41)
  10  H        -0.000034(  10)      0.000047(  26)      0.000000(  42)
  11  C         0.000753(  11)     -0.000137(  27)      0.000000(  43)
  12  Cl       -0.001067(  12)      0.000181(  28)      0.000000(  44)
      X     4   0.000000(  13)  3   0.000069(  29)  5   0.000000(  45)  0
  13  O     4   0.002417(  14) 13   0.000069(  30)  3   0.000000(  46)  0
  14  H    14   0.008980(  15)  4   0.000343(  31) 13   0.000049(  47)  0
  15  H    14   0.008980(  16)  4   0.000343(  32) 13  -0.000049(  48)  0
 ------------------------------------------------------------------------
 Internal  Forces:  Max     0.008979734 RMS     0.001969469

 GradGradGradGradGradGradGradGradGradGradGradGradGradGradGradGradGradGrad
 Berny optimization.
 Search for a local minimum.
 Step number   2 out of a maximum of  20
 All quantities printed in internal units (Hartrees-Bohrs-Radians)
 Update second derivatives using D2CorN and points  1  2
 Trust test= 1.69D+00 RLast= 9.23D-02 DXMaxT set to 3.00D-01
 The second derivative matrix:
                          roh
           roh          0.01078
 Maximum step size (   0.300) exceeded in linear search.
    -- Step size scaled by   0.818
 Quartic linear search produced a step of  3.25182.
 Variable       Old X    -DE/DX   Delta X   Delta X   Delta X     New X
                                 (Linear)    (Quad)   (Total)
   roh        4.06068   0.00242   0.30000   0.00000   0.30000   4.36068
         Item               Value     Threshold  Converged?
 Maximum Force            0.002417     0.000450     NO 
 RMS     Force            0.002417     0.000300     NO 
 Maximum Displacement     0.300000     0.001800     NO 
 RMS     Displacement     0.300000     0.001200     NO 
 Predicted change in Energy=-2.401441D-04
 GradGradGradGradGradGradGradGradGradGradGradGradGradGradGradGradGradGrad

 ------------------------------------------------------------------------
                         Z-MATRIX (ANGSTROMS AND DEGREES)
 CD Cent Atom  N1     Length/X     N2    Alpha/Y     N3     Beta/Z      J
 ------------------------------------------------------------------------
   1   1  C     0   0.173030         -1.226543          0.000000
   2   2  H     0  -0.387009         -2.164857          0.000000
   3   3  C     0   1.580080         -1.217204          0.000000
   4   4  H     0   2.122475         -2.167243          0.000000
   5   5  C     0   2.286660          0.000000          0.000000
   6   6  H     0   3.380093          0.000000          0.000000
   7   7  C     0   1.580080          1.217204          0.000000
   8   8  H     0   2.122476          2.167243          0.000000
   9   9  C     0   0.173029          1.226543          0.000000
  10  10  H     0  -0.387010          2.164857          0.000000
  11  11  C     0  -0.512547          0.000000          0.000000
  12  12  Cl    0  -2.266648          0.000000          0.000000
  13      X     4   1.000000( 12)   3   90.000( 26)   5    0.000( 39)   0
  14  13  O     4   2.307573( 13)  13   90.000( 27)   3  180.000( 40)   0
  15  14  H    14   0.957200( 14)   4  127.740( 28)  13   90.000( 41)   0
  16  15  H    14   0.957200( 15)   4  127.740( 29)  13  -90.000( 42)   0
 ------------------------------------------------------------------------
                         Z-Matrix orientation:                         
 ---------------------------------------------------------------------
 Center     Atomic     Atomic              Coordinates (Angstroms)
 Number     Number      Type              X           Y           Z
 ---------------------------------------------------------------------
    1          6             0        0.173030   -1.226543    0.000000
    2          1             0       -0.387009   -2.164857    0.000000
    3          6             0        1.580080   -1.217204    0.000000
    4          1             0        2.122475   -2.167243    0.000000
    5          6             0        2.286660    0.000000    0.000000
    6          1             0        3.380093    0.000000    0.000000
    7          6             0        1.580080    1.217204    0.000000
    8          1             0        2.122476    2.167243    0.000000
    9          6             0        0.173029    1.226543    0.000000
   10          1             0       -0.387010    2.164857    0.000000
   11          6             0       -0.512547    0.000000    0.000000
   12         17             0       -2.266648    0.000000    0.000000
   13         -1             0        2.990909   -1.671438    0.000000
   14          8             0        3.266581   -4.171217    0.000000
   15          1             0        3.557065   -4.680017    0.756950
   16          1             0        3.557065   -4.680017   -0.756950
 ---------------------------------------------------------------------
                    Distance matrix (angstroms):
                    1          2          3          4          5
     1  C    0.000000
     2  H    1.092738   0.000000
     3  C    1.407081   2.183457   0.000000
     4  H    2.164544   2.509485   1.093968   0.000000
     5  C    2.443735   3.440220   1.407423   2.173453   0.000000
     6  H    3.433608   4.344843   2.172932   2.505703   1.093433
     7  C    2.819874   3.912515   2.434408   3.427634   1.407423
     8  H    3.913837   5.006456   3.427634   4.334486   2.173453
     9  C    2.453086   3.437330   2.819874   3.913837   2.443736
    10  H    3.437330   4.329714   3.912516   5.006456   3.440221
    11  C    1.405142   2.168494   2.420883   3.411786   2.799207
    12  Cl   2.730648   2.866993   4.034712   4.895032   4.553308
    13  X    2.852783   3.413765   1.482149   1.000000   1.813745
    14  O    4.270968   4.168238   3.401541   2.307573   4.284776
    15  H    4.893991   4.738642   4.058635   2.990829   4.908102
    16  H    4.893991   4.738642   4.058635   2.990829   4.908102
                    6          7          8          9         10
     6  H    0.000000
     7  C    2.172932   0.000000
     8  H    2.505702   1.093969   0.000000
     9  C    3.433608   1.407082   2.164546   0.000000
    10  H    4.344844   2.183458   2.509487   1.092738   0.000000
    11  C    3.892640   2.420883   3.411787   1.405141   2.168494
    12  Cl   5.646741   4.034712   4.895033   2.730647   2.866992
    13  X    1.716149   3.214761   3.935689   4.042121   5.111506
    14  O    4.172762   5.646182   6.440890   6.221405   7.313998
    15  H    4.744139   6.265673   7.036760   6.849243   7.936057
    16  H    4.744139   6.265673   7.036760   6.849243   7.936057
                   11         12         13         14         15
    11  C    0.000000
    12  Cl   1.754101   0.000000
    13  X    3.881740   5.516848   0.000000
    14  O    5.628576   6.929335   2.514934   0.000000
    15  H    6.247982   7.509405   3.153578   0.957200   0.000000
    16  H    6.247982   7.509405   3.153578   0.957200   1.513901
                   16
    16  H    0.000000
                           Interatomic angles:
       H2-C1-C3=121.2114       H2-C1-H4= 95.0716       C1-C3-H4=119.3426
       H2-C3-H4= 94.0002       H2-C1-C5=150.9578       C1-C3-C5=120.5152
       H2-C3-C5=145.8575       C1-H4-C5= 68.5728       H2-H4-C5= 94.2778
       H4-C3-C5=120.1422       C1-C3-H6=146.313        H2-C3-H6=171.6553
       C1-H4-H6= 94.3664       H2-H4-H6=120.0715       H4-C3-H6= 94.3445
       C1-C5-H6=149.8733       C3-C5-H6=120.1349       H4-C5-H6= 94.3323
       H2-C1-C7=179.1011       C1-C3-C7= 90.3803       H2-C3-C7=115.7226
       H4-C1-C7= 85.8272       H4-C3-C7=150.2771       C1-C5-C7= 89.9917
       C3-C5-C7=119.7302       H4-C5-C7=145.5328       C1-C7-H6= 85.865 
       C3-H6-C7= 68.1347       H4-H6-C7= 93.9414       H6-C5-C7=120.1349
       C1-C5-H8=115.7944       C3-C5-H8=145.5328       H4-C5-H8=171.3354
       C3-H6-H8= 93.9414       H4-H6-H8=119.7481       H6-C5-H8= 94.3323
       C1-C7-H8=179.7906       C3-C7-H8=150.2771       C5-C7-H8=120.1422
       H6-C7-H8= 94.3444       H2-C1-C9=149.1688       C3-C1-C9= 89.6197
       H2-C3-C9= 85.7903       H4-C1-C9=115.7595       H4-C3-C9=179.7905
       C1-C5-C9= 60.2533       C3-C5-C9= 89.9917       H4-C5-C9=115.7943
       H6-C3-C9= 85.865        H6-C5-C9=149.8733       C1-C9-C7= 89.6197
       C3-C7-C9= 90.3803       C5-C7-C9=120.5152       H6-C7-C9=146.313 
       C1-C9-H8=115.7595       C3-C9-H8= 85.8272       C5-H8-C9= 68.5728
       H6-H8-C9= 94.3664       H8-C7-C9=119.3426      C1-C7-H10= 85.7903
      C3-C7-H10=115.7226      C5-C7-H10=145.8575      H6-C7-H10=171.6553
      C5-H8-H10= 94.2778      H6-H8-H10=120.0714      H8-C7-H10= 94.0003
      C1-C9-H10=149.1689      C3-C9-H10=179.1012      C5-C9-H10=150.9578
      C7-C9-H10=121.2114      H8-C9-H10= 95.0716      H2-C1-C11=119.9658
      C3-C1-C11=118.8228      C3-H2-C11= 67.5962      H4-C1-C11=144.9626
      H4-H2-C11= 93.3733      H4-C3-C11=149.9078      C5-C1-C11= 89.0764
      H2-C11-C5= 86.6812      C5-C3-C11= 89.9499      H4-C5-C11= 85.6677
      H6-C3-C11=115.7477      H6-C5-C11=180.          C1-C11-C7= 90.982 
      H2-C11-C7=116.8662      C3-C11-C7= 60.37        C5-C7-C11= 89.9499
      H6-C7-C11=115.7477      H8-C5-C11= 85.6677      H8-C7-C11=149.9079
      C1-C11-C9=121.594       H2-C11-C9=147.4782      C3-C11-C9= 90.982 
      C5-C9-C11= 89.0763      C7-C9-C11=118.8227      H8-C9-C11=144.9625
     C1-C11-H10=147.4782     H2-C11-H10=173.3624     C3-C11-H10=116.8662
     C5-C11-H10= 86.6812     C7-H10-C11= 67.5962     H8-H10-C11= 93.3733
     H10-C9-C11=119.9659     H2-C1-Cl12= 85.8597     C3-C1-Cl12=152.9288
     C3-H2-Cl12=105.2435     H4-C1-Cl12=179.0687     H4-H2-Cl12=131.0207
     C5-C1-Cl12=123.1825     C7-C1-Cl12= 93.2414     C1-C9-Cl12= 63.3091
     H2-Cl12-C9= 75.7247     C3-C9-Cl12= 93.2414     C5-C9-Cl12=123.1825
     C7-C9-Cl12=152.9288     H8-C9-Cl12=179.0686    C1-Cl12-H10= 75.7247
    H2-Cl12-H10= 98.0677    C7-H10-Cl12=105.2435    H8-H10-Cl12=131.0206
    H10-C9-Cl12= 85.8597    C1-C11-Cl12=119.203     H2-C11-Cl12= 93.3188
    C3-C11-Cl12=149.815     C5-C11-Cl12=180.        C7-C11-Cl12=149.815 
    C9-C11-Cl12=119.203    H10-C11-Cl12= 93.3188      H2-C1-X13=111.8592
      C1-C3-X13=161.7731      H2-C3-X13=136.4308      C1-H4-X13=124.5176
      H2-H4-X13=150.2227      C3-H4-X13= 90.          C1-C5-X13= 82.7211
      C5-C3-X13= 77.7117      H4-X13-C5= 96.8751      C1-X13-H6= 94.1355
      C3-X13-H6= 85.2608      H4-X13-H6=132.8303      C5-H6-X13= 76.8926
      C7-C1-X13= 69.0397      C7-C3-X13=107.8466      C7-C5-X13=172.7129
      C7-H6-X13=110.9599      H8-C5-X13=161.4845      H8-H6-X13=136.7667
      C9-C1-X13= 98.972       C9-C3-X13=137.7789      C9-C5-X13=142.9744
     C11-C1-X13=128.175      C11-C3-X13=167.6616     C11-C5-X13=112.8478
    Cl12-C1-X13=162.2811      C1-H4-O14=145.4824      H2-H4-O14=119.7773
      C3-H4-O14=180.          C5-H4-O14=145.9448      H6-H4-O14=120.1512
     C1-X13-O14=105.265      C3-X13-O14=114.1397     X13-H4-O14= 90.    
     C5-X13-O14=163.4453     H6-X13-O14=160.5995      C1-H4-H15=142.8565
      H2-H4-H15=118.7156      C3-H4-H15=165.3395      C5-H4-H15=143.276 
      H6-H4-H15=119.0735     X13-H4-H15= 90.         H4-O14-H15=127.74  
    X13-O14-H15=124.1674      C1-H4-H16=142.8565      H2-H4-H16=118.7156
      C3-H4-H16=165.3395      C5-H4-H16=143.276       H6-H4-H16=119.0735
     X13-H4-H16= 90.         H4-O14-H16=127.74      X13-O14-H16=124.1674
     H4-H15-H16= 75.3395    H15-O14-H16=104.52  
 Stoichiometry    C6H7ClO
 Framework group  CS[SG(C6H5ClO),X(H2)]
 Deg. of freedom    26
 Full point group                 CS
 Largest Abelian subgroup         CS      NOp   2
 Largest concise Abelian subgroup CS      NOp   2
                         Standard orientation:                         
 ---------------------------------------------------------------------
 Center     Atomic     Atomic              Coordinates (Angstroms)
 Number     Number      Type              X           Y           Z
 ---------------------------------------------------------------------
    1          6             0       -0.598164    0.315893    0.000000
    2          1             0       -1.536478    0.875932    0.000000
    3          6             0       -0.588825   -1.091157    0.000000
    4          1             0       -1.538864   -1.633552    0.000000
    5          6             0        0.628379   -1.797737    0.000000
    6          1             0        0.628379   -2.891170    0.000000
    7          6             0        1.845583   -1.091157    0.000000
    8          1             0        2.795622   -1.633553    0.000000
    9          6             0        1.854922    0.315894    0.000000
   10          1             0        2.793236    0.875933    0.000000
   11          6             0        0.628379    1.001470    0.000000
   12         17             0        0.628379    2.755571    0.000000
   13          8             0       -3.542838   -2.777658    0.000000
   14          1             0       -4.051638   -3.068142    0.756950
   15          1             0       -4.051638   -3.068142   -0.756950
 ---------------------------------------------------------------------
 Rotational constants (GHZ):      2.4630886      0.7551275      0.5794738
 Standard basis: Aug-CC-pVDZ (5D, 7F)
 There are   175 symmetry adapted basis functions of A'  symmetry.
 There are    76 symmetry adapted basis functions of A"  symmetry.
 Integral buffers will be    131072 words long.
 Raffenetti 1 integral format.
 Two-electron integral symmetry is turned on.
   251 basis functions,   461 primitive gaussians,   267 cartesian basis functions
    34 alpha electrons       34 beta electrons
       nuclear repulsion energy       380.6684771932 Hartrees.
 NAtoms=   15 NActive=   15 NUniq=   14 SFac= 8.61D-01 NAtFMM=   80 NAOKFM=F Big=F
 One-electron integrals computed using PRISM.
 NBasis=   251 RedAO= T  NBF=   175    76
 NBsUse=   251 1.00D-06 NBFU=   175    76
 Initial guess read from the read-write file:
 Initial guess orbital symmetries:
       Occupied  (A') (A') (A') (A') (A') (A') (A') (A') (A') (A')
                 (A') (A") (A') (A') (A') (A') (A') (A') (A') (A")
                 (A') (A') (A') (A') (A') (A') (A") (A') (A') (A')
                 (A") (A') (A") (A")
       Virtual   (A') (A') (A') (A") (A') (A') (A') (A") (A') (A")
                 (A") (A') (A') (A') (A") (A') (A") (A') (A') (A')
                 (A') (A') (A") (A') (A') (A") (A") (A") (A') (A')
                 (A") (A') (A') (A') (A') (A') (A') (A') (A") (A')
                 (A') (A") (A') (A') (A') (A') (A") (A') (A") (A')
                 (A') (A') (A') (A') (A') (A") (A') (A") (A') (A")
                 (A") (A') (A') (A') (A") (A") (A') (A') (A') (A")
                 (A') (A") (A') (A') (A") (A') (A') (A") (A') (A')
                 (A") (A') (A') (A') (A') (A') (A') (A") (A') (A")
                 (A") (A') (A') (A") (A') (A') (A") (A') (A') (A')
                 (A") (A") (A") (A') (A') (A") (A") (A') (A') (A')
                 (A") (A') (A") (A') (A") (A') (A") (A') (A") (A')
                 (A') (A") (A") (A') (A') (A') (A') (A') (A") (A")
                 (A') (A') (A") (A") (A') (A') (A') (A') (A') (A')
                 (A") (A') (A") (A') (A') (A') (A') (A') (A') (A")
                 (A") (A') (A") (A") (A') (A') (A') (A') (A") (A')
                 (A') (A") (A') (A') (A') (A") (A") (A') (A') (A")
                 (A') (A") (A') (A") (A') (A") (A') (A") (A') (A')
                 (A') (A") (A') (A') (A') (A") (A') (A') (A') (A")
                 (A') (A") (A") (A') (A') (A') (A') (A") (A') (A')
                 (A') (A') (A') (A') (A') (A') (A') (A') (A') (A')
                 (A") (A') (A') (A') (A') (A") (A')
 Harris functional with IExCor=  205 diagonalized for initial guess.
 ExpMin= 2.97D-02 ExpMax= 1.28D+05 ExpMxC= 1.24D+03 IAcc=3 IRadAn=         5 AccDes= 0.00D+00
 HarFok:  IExCor= 205 AccDes= 0.00D+00 IRadAn=         5 IDoV=1
 ScaDFX=  1.000000  1.000000  1.000000  1.000000
 Requested convergence on RMS density matrix=1.00D-08 within 128 cycles.
 Requested convergence on MAX density matrix=1.00D-06.
 Requested convergence on             energy=1.00D-06.
 No special actions if energy rises.
 Restarting incremental Fock formation.
 SCF Done:  E(RHF) =  -765.691302698     A.U. after   22 cycles
             Convg  =    0.3933D-08             -V/T =  2.0007
             S**2   =   0.0000
 ExpMin= 2.97D-02 ExpMax= 1.28D+05 ExpMxC= 1.24D+03 IAcc=3 IRadAn=         5 AccDes= 0.00D+00
 HarFok:  IExCor= 205 AccDes= 0.00D+00 IRadAn=         5 IDoV=1
 ScaDFX=  1.000000  1.000000  1.000000  1.000000
 Range of M.O.s used for correlation:    13   251
 NBasis=   251 NAE=    34 NBE=    34 NFC=    12 NFV=     0
 NROrb=    239 NOA=    22 NOB=    22 NVA=   217 NVB=   217

 **** Warning!!: The largest alpha MO coefficient is  0.14204778D+03

 Disk-based method using ON**2 memory for 22 occupieds at a time.
 Estimated scratch disk usage=   673714680 words.
 Actual    scratch disk usage=   672309240 words.
 JobTyp=1 Pass  1:  I=  13 to  34 NPSUse=  1 ParTrn=F ParDer=F DoDerP=T.
 Spin components of T(2) and E(2):
     alpha-alpha T2 =       0.6142492886D-01 E2=     -0.1572143454D+00
     alpha-beta  T2 =       0.3147912622D+00 E2=     -0.8667624541D+00
     beta-beta   T2 =       0.6142492886D-01 E2=     -0.1572143454D+00
 ANorm=    0.1199016730D+01
 E2 =    -0.1181191145D+01 EUMP2 =    -0.76687249384302D+03
 DoAtom=TTTTTTTTTTTTTTT
          Differentiating once with respect to electric field.
                with respect to dipole field.
          Differentiating once with respect to nuclear coordinates.
          There are   1 degrees of freedom in the 1st order CPHF.
 Petite list used in FoFDir.
 MinBra= 0 MaxBra= 2 Meth= 1.
 IRaf=       0 NMat=   1 IRICut=       1 DoRegI=T DoRafI=F ISym2E= 1 JSym2E=1.
     1 vectors were produced by pass  0.
 AX will form   1 AO Fock derivatives at one time.
     1 vectors were produced by pass  1.
     1 vectors were produced by pass  2.
     1 vectors were produced by pass  3.
     1 vectors were produced by pass  4.
     1 vectors were produced by pass  5.
     1 vectors were produced by pass  6.
     1 vectors were produced by pass  7.
     1 vectors were produced by pass  8.
     1 vectors were produced by pass  9.
     1 vectors were produced by pass 10.
     1 vectors were produced by pass 11.
     1 vectors were produced by pass 12.
     1 vectors were produced by pass 13.
     1 vectors were produced by pass 14.
     1 vectors were produced by pass 15.
 Inv2:  IOpt= 1 Iter= 1 AM= 4.07D-16 Conv= 1.00D-12.
 Inverted reduced A of dimension   16 with in-core refinement.
 End of Minotr Frequency-dependent properties file   721 does not exist.
 ***** Axes restored to original set *****
 -------------------------------------------------------------------
 Center     Atomic                   Forces (Hartrees/Bohr)
 Number     Number              X              Y              Z
 -------------------------------------------------------------------
    1          6          -0.000081370    0.001441941    0.000000000
    2          1           0.000212409   -0.000154591    0.000000000
    3          6           0.001472348   -0.002519542    0.000000000
    4          1          -0.000141466    0.000189758    0.000000000
    5          6          -0.001387580    0.000723339    0.000000000
    6          1           0.000023541   -0.000261345    0.000000000
    7          6           0.000414834    0.000296230    0.000000000
    8          1          -0.000085676    0.000253727    0.000000000
    9          6          -0.000298046    0.000125449    0.000000000
   10          1          -0.000029025    0.000038880    0.000000000
   11          6           0.000716624   -0.000101129    0.000000000
   12         17          -0.000924101    0.000149025    0.000000000
   13          8          -0.005313355    0.009445949    0.000000000
   14          1           0.002710431   -0.004813846    0.006875212
   15          1           0.002710431   -0.004813846   -0.006875212
 -------------------------------------------------------------------
 Cartesian Forces:  Max     0.009445949 RMS     0.002530334
 ------------------------------------------------------------------------
           Internal Coordinate Forces (Hartree/Bohr or radian)
 Cent Atom N1     Length/X     N2     Alpha/Y      N3      Beta/Z       J
 ------------------------------------------------------------------------
   1  C        -0.000081(   1)      0.001442(  17)      0.000000(  33)
   2  H         0.000212(   2)     -0.000155(  18)      0.000000(  34)
   3  C         0.001497(   3)     -0.002505(  19)      0.000000(  35)
   4  H        -0.000059(   4)     -0.000006(  20)      0.000000(  36)
   5  C        -0.001388(   5)      0.000723(  21)      0.000000(  37)
   6  H         0.000024(   6)     -0.000261(  22)      0.000000(  38)
   7  C         0.000415(   7)      0.000296(  23)      0.000000(  39)
   8  H        -0.000086(   8)      0.000254(  24)      0.000000(  40)
   9  C        -0.000298(   9)      0.000125(  25)      0.000000(  41)
  10  H        -0.000029(  10)      0.000039(  26)      0.000000(  42)
  11  C         0.000717(  11)     -0.000101(  27)      0.000000(  43)
  12  Cl       -0.000924(  12)      0.000149(  28)      0.000000(  44)
      X     4   0.000000(  13)  3   0.000059(  29)  5   0.000000(  45)  0
  13  O     4   0.000211(  14) 13   0.000059(  30)  3   0.000000(  46)  0
  14  H    14   0.008818(  15)  4   0.000290(  31) 13   0.000047(  47)  0
  15  H    14   0.008818(  16)  4   0.000290(  32) 13  -0.000047(  48)  0
 ------------------------------------------------------------------------
 Internal  Forces:  Max     0.008818235 RMS     0.001886241

 GradGradGradGradGradGradGradGradGradGradGradGradGradGradGradGradGradGrad
 Berny optimization.
 Search for a local minimum.
[...]
    13  X    2.852783   3.413765   1.482149   1.000000   1.813745
    14  O    4.292759   4.187646   3.424285   2.330317   4.306588
    15  H    4.915731   4.758524   4.080983   3.012838   4.929859
    16  H    4.915731   4.758524   4.080983   3.012838   4.929859
                    6          7          8          9         10
     6  H    0.000000
     7  C    2.172932   0.000000
     8  H    2.505702   1.093969   0.000000
     9  C    3.433608   1.407082   2.164546   0.000000
    10  H    4.344844   2.183458   2.509487   1.092738   0.000000
    11  C    3.892640   2.420883   3.411787   1.405141   2.168494
    12  Cl   5.646741   4.034712   4.895033   2.730647   2.866992
    13  X    1.716149   3.214761   3.935689   4.042121   5.111506
    14  O    4.192216   5.668403   6.462335   6.244150   7.336742
    15  H    4.764057   6.287824   7.058283   6.871848   7.958698
    16  H    4.764057   6.287824   7.058283   6.871848   7.958698
                   11         12         13         14         15
    11  C    0.000000
    12  Cl   1.754101   0.000000
    13  X    3.881740   5.516848   0.000000
    14  O    5.650787   6.950235   2.535819   0.000000
    15  H    6.270124   7.530465   3.174460   0.957200   0.000000
    16  H    6.270124   7.530465   3.174460   0.957200   1.513901
                   16
    16  H    0.000000
                           Interatomic angles:
       H2-C1-C3=121.2114       H2-C1-H4= 95.0716       C1-C3-H4=119.3426
       H2-C3-H4= 94.0002       H2-C1-C5=150.9578       C1-C3-C5=120.5152
       H2-C3-C5=145.8575       C1-H4-C5= 68.5728       H2-H4-C5= 94.2778
       H4-C3-C5=120.1422       C1-C3-H6=146.313        H2-C3-H6=171.6553
       C1-H4-H6= 94.3664       H2-H4-H6=120.0715       H4-C3-H6= 94.3445
       C1-C5-H6=149.8733       C3-C5-H6=120.1349       H4-C5-H6= 94.3323
       H2-C1-C7=179.1011       C1-C3-C7= 90.3803       H2-C3-C7=115.7226
       H4-C1-C7= 85.8272       H4-C3-C7=150.2771       C1-C5-C7= 89.9917
       C3-C5-C7=119.7302       H4-C5-C7=145.5328       C1-C7-H6= 85.865 
       C3-H6-C7= 68.1347       H4-H6-C7= 93.9414       H6-C5-C7=120.1349
       C1-C5-H8=115.7944       C3-C5-H8=145.5328       H4-C5-H8=171.3354
       C3-H6-H8= 93.9414       H4-H6-H8=119.7481       H6-C5-H8= 94.3323
       C1-C7-H8=179.7906       C3-C7-H8=150.2771       C5-C7-H8=120.1422
       H6-C7-H8= 94.3444       H2-C1-C9=149.1688       C3-C1-C9= 89.6197
       H2-C3-C9= 85.7903       H4-C1-C9=115.7595       H4-C3-C9=179.7905
       C1-C5-C9= 60.2533       C3-C5-C9= 89.9917       H4-C5-C9=115.7943
       H6-C3-C9= 85.865        H6-C5-C9=149.8733       C1-C9-C7= 89.6197
       C3-C7-C9= 90.3803       C5-C7-C9=120.5152       H6-C7-C9=146.313 
       C1-C9-H8=115.7595       C3-C9-H8= 85.8272       C5-H8-C9= 68.5728
       H6-H8-C9= 94.3664       H8-C7-C9=119.3426      C1-C7-H10= 85.7903
      C3-C7-H10=115.7226      C5-C7-H10=145.8575      H6-C7-H10=171.6553
      C5-H8-H10= 94.2778      H6-H8-H10=120.0714      H8-C7-H10= 94.0003
      C1-C9-H10=149.1689      C3-C9-H10=179.1012      C5-C9-H10=150.9578
      C7-C9-H10=121.2114      H8-C9-H10= 95.0716      H2-C1-C11=119.9658
      C3-C1-C11=118.8228      C3-H2-C11= 67.5962      H4-C1-C11=144.9626
      H4-H2-C11= 93.3733      H4-C3-C11=149.9078      C5-C1-C11= 89.0764
      H2-C11-C5= 86.6812      C5-C3-C11= 89.9499      H4-C5-C11= 85.6677
      H6-C3-C11=115.7477      H6-C5-C11=180.          C1-C11-C7= 90.982 
      H2-C11-C7=116.8662      C3-C11-C7= 60.37        C5-C7-C11= 89.9499
      H6-C7-C11=115.7477      H8-C5-C11= 85.6677      H8-C7-C11=149.9079
      C1-C11-C9=121.594       H2-C11-C9=147.4782      C3-C11-C9= 90.982 
      C5-C9-C11= 89.0763      C7-C9-C11=118.8227      H8-C9-C11=144.9625
     C1-C11-H10=147.4782     H2-C11-H10=173.3624     C3-C11-H10=116.8662
     C5-C11-H10= 86.6812     C7-H10-C11= 67.5962     H8-H10-C11= 93.3733
     H10-C9-C11=119.9659     H2-C1-Cl12= 85.8597     C3-C1-Cl12=152.9288
     C3-H2-Cl12=105.2435     H4-C1-Cl12=179.0687     H4-H2-Cl12=131.0207
     C5-C1-Cl12=123.1825     C7-C1-Cl12= 93.2414     C1-C9-Cl12= 63.3091
     H2-Cl12-C9= 75.7247     C3-C9-Cl12= 93.2414     C5-C9-Cl12=123.1825
     C7-C9-Cl12=152.9288     H8-C9-Cl12=179.0686    C1-Cl12-H10= 75.7247
    H2-Cl12-H10= 98.0677    C7-H10-Cl12=105.2435    H8-H10-Cl12=131.0206
    H10-C9-Cl12= 85.8597    C1-C11-Cl12=119.203     H2-C11-Cl12= 93.3188
    C3-C11-Cl12=149.815     C5-C11-Cl12=180.        C7-C11-Cl12=149.815 
    C9-C11-Cl12=119.203    H10-C11-Cl12= 93.3188      H2-C1-X13=111.8592
      C1-C3-X13=161.7731      H2-C3-X13=136.4308      C1-H4-X13=124.5176
      H2-H4-X13=150.2227      C3-H4-X13= 90.          C1-C5-X13= 82.7211
      C5-C3-X13= 77.7117      H4-X13-C5= 96.8751      C1-X13-H6= 94.1355
      C3-X13-H6= 85.2608      H4-X13-H6=132.8303      C5-H6-X13= 76.8926
      C7-C1-X13= 69.0397      C7-C3-X13=107.8466      C7-C5-X13=172.7129
      C7-H6-X13=110.9599      H8-C5-X13=161.4845      H8-H6-X13=136.7667
      C9-C1-X13= 98.972       C9-C3-X13=137.7789      C9-C5-X13=142.9744
     C11-C1-X13=128.175      C11-C3-X13=167.6616     C11-C5-X13=112.8478
    Cl12-C1-X13=162.2811      C1-H4-O14=145.4824      H2-H4-O14=119.7773
      C3-H4-O14=180.          C5-H4-O14=145.9448      H6-H4-O14=120.1512
     C1-X13-O14=105.4694     C3-X13-O14=114.344      X13-H4-O14= 90.    
     C5-X13-O14=163.6496     H6-X13-O14=160.3952      C1-H4-H15=142.8942
      H2-H4-H15=118.7312      C3-H4-H15=165.449       C5-H4-H15=143.3142
      H6-H4-H15=119.0893     X13-H4-H15= 90.         H4-O14-H15=127.74  
    X13-O14-H15=124.2272      C1-H4-H16=142.8942      H2-H4-H16=118.7312
      C3-H4-H16=165.449       C5-H4-H16=143.3142      H6-H4-H16=119.0893
     X13-H4-H16= 90.         H4-O14-H16=127.74      X13-O14-H16=124.2272
     H4-H15-H16= 75.449     H15-O14-H16=104.52  
 Stoichiometry    C6H7ClO
 Framework group  CS[SG(C6H5ClO),X(H2)]
 Deg. of freedom    26
 Full point group                 CS
 Largest Abelian subgroup         CS      NOp   2
 Largest concise Abelian subgroup CS      NOp   2
                         Standard orientation:                         
 ---------------------------------------------------------------------
 Center     Atomic     Atomic              Coordinates (Angstroms)
 Number     Number      Type              X           Y           Z
 ---------------------------------------------------------------------
    1          6             0       -0.595259    0.317552    0.000000
    2          1             0       -1.533573    0.877591    0.000000
    3          6             0       -0.585920   -1.089498    0.000000
    4          1             0       -1.535959   -1.631893    0.000000
    5          6             0        0.631284   -1.796078    0.000000
    6          1             0        0.631284   -2.889511    0.000000
    7          6             0        1.848488   -1.089498    0.000000
    8          1             0        2.798527   -1.631894    0.000000
    9          6             0        1.857827    0.317553    0.000000
   10          1             0        2.796141    0.877592    0.000000
   11          6             0        0.631284    1.003129    0.000000
   12         17             0        0.631284    2.757230    0.000000
   13          8             0       -3.559686   -2.787277    0.000000
   14          1             0       -4.068486   -3.077760    0.756950
   15          1             0       -4.068486   -3.077760   -0.756950
 ---------------------------------------------------------------------
 Rotational constants (GHZ):      2.4583875      0.7513221      0.5769717

 **********************************************************************

            Population analysis using the SCF density.

 **********************************************************************

 Orbital symmetries:
       Occupied  (A') (A') (A') (A') (A') (A') (A') (A') (A') (A')
                 (A') (A") (A') (A') (A') (A') (A') (A') (A') (A")
                 (A') (A') (A') (A') (A') (A') (A") (A') (A') (A')
                 (A") (A') (A") (A")
       Virtual   (A') (A') (A') (A") (A') (A') (A') (A") (A') (A")
                 (A") (A') (A') (A') (A") (A') (A") (A') (A') (A')
                 (A') (A') (A") (A') (A') (A") (A") (A") (A') (A')
                 (A") (A') (A') (A') (A') (A') (A') (A') (A") (A')
                 (A') (A") (A') (A') (A') (A') (A") (A') (A") (A')
                 (A') (A') (A') (A') (A') (A") (A') (A") (A') (A")
                 (A') (A") (A') (A') (A") (A") (A') (A') (A') (A')
                 (A") (A") (A') (A') (A") (A') (A') (A") (A') (A')
                 (A") (A') (A') (A') (A') (A') (A') (A") (A') (A")
                 (A") (A') (A') (A") (A') (A') (A") (A') (A') (A')
                 (A") (A') (A") (A") (A') (A") (A') (A") (A') (A')
                 (A") (A") (A') (A') (A") (A') (A") (A') (A") (A')
                 (A') (A") (A") (A') (A') (A') (A') (A') (A") (A")
                 (A') (A') (A") (A') (A") (A') (A') (A') (A') (A')
                 (A") (A') (A") (A') (A') (A') (A') (A') (A') (A")
                 (A") (A') (A") (A") (A') (A') (A') (A') (A") (A')
                 (A') (A") (A') (A') (A') (A") (A') (A") (A") (A')
                 (A') (A") (A') (A") (A') (A") (A') (A") (A') (A')
                 (A') (A") (A') (A') (A") (A') (A') (A') (A') (A')
                 (A") (A") (A") (A') (A') (A') (A") (A') (A') (A')
                 (A') (A') (A') (A') (A') (A') (A') (A') (A') (A')
                 (A") (A') (A') (A') (A') (A") (A')
 The electronic state is 1-A'.
 Alpha  occ. eigenvalues -- -104.83261 -20.59112 -11.30615 -11.25432 -11.25320
 Alpha  occ. eigenvalues --  -11.25198 -11.24763 -11.24630 -10.55856  -8.02635
 Alpha  occ. eigenvalues --   -8.02307  -8.02295  -1.37155  -1.17783  -1.10808
 Alpha  occ. eigenvalues --   -1.01971  -0.98685  -0.83443  -0.80855  -0.73371
 Alpha  occ. eigenvalues --   -0.69746  -0.64043  -0.63361  -0.60750  -0.58569
 Alpha  occ. eigenvalues --   -0.57746  -0.53135  -0.52433  -0.50465  -0.49998
 Alpha  occ. eigenvalues --   -0.45886  -0.44798  -0.33954  -0.32660
 Alpha virt. eigenvalues --    0.02556   0.04061   0.05040   0.05293   0.05681
 Alpha virt. eigenvalues --    0.06480   0.08192   0.09955   0.10298   0.10384
 Alpha virt. eigenvalues --    0.12699   0.12829   0.13864   0.14357   0.14787
 Alpha virt. eigenvalues --    0.15640   0.15674   0.15958   0.16550   0.17524
 Alpha virt. eigenvalues --    0.18022   0.18127   0.18531   0.19151   0.19893
 Alpha virt. eigenvalues --    0.20057   0.20768   0.21147   0.21542   0.22247
 Alpha virt. eigenvalues --    0.23399   0.24092   0.25620   0.26847   0.27881
 Alpha virt. eigenvalues --    0.29494   0.30817   0.31303   0.31799   0.32662
 Alpha virt. eigenvalues --    0.33522   0.33864   0.33999   0.35201   0.36448
 Alpha virt. eigenvalues --    0.36738   0.37726   0.37998   0.38235   0.39049
 Alpha virt. eigenvalues --    0.40301   0.41481   0.41740   0.42550   0.43754
 Alpha virt. eigenvalues --    0.43867   0.44948   0.45375   0.46825   0.47150
 Alpha virt. eigenvalues --    0.50832   0.51374   0.53125   0.53821   0.54646
 Alpha virt. eigenvalues --    0.56200   0.57209   0.58170   0.58392   0.59086
 Alpha virt. eigenvalues --    0.59092   0.60621   0.61057   0.62345   0.64824
 Alpha virt. eigenvalues --    0.65046   0.65996   0.66680   0.67556   0.68035
 Alpha virt. eigenvalues --    0.68492   0.69128   0.69500   0.71721   0.72510
 Alpha virt. eigenvalues --    0.72843   0.74729   0.75211   0.77263   0.77390
 Alpha virt. eigenvalues --    0.79154   0.79857   0.80941   0.82929   0.84045
 Alpha virt. eigenvalues --    0.85801   0.86998   0.87238   0.87953   0.90025
 Alpha virt. eigenvalues --    0.90831   0.92845   0.93010   0.93679   0.95044
 Alpha virt. eigenvalues --    0.95529   0.97224   0.97271   0.98588   0.98891
 Alpha virt. eigenvalues --    1.00197   1.02060   1.02882   1.05197   1.06943
 Alpha virt. eigenvalues --    1.11041   1.12684   1.13856   1.14091   1.16287
 Alpha virt. eigenvalues --    1.18174   1.20492   1.21594   1.23858   1.25416
 Alpha virt. eigenvalues --    1.28613   1.36506   1.37870   1.42585   1.42704
 Alpha virt. eigenvalues --    1.44284   1.48041   1.48136   1.48835   1.48887
 Alpha virt. eigenvalues --    1.49264   1.50555   1.55324   1.56203   1.56873
 Alpha virt. eigenvalues --    1.57738   1.58687   1.60843   1.62657   1.64043
 Alpha virt. eigenvalues --    1.65881   1.66447   1.67623   1.69049   1.70511
 Alpha virt. eigenvalues --    1.71152   1.71651   1.72572   1.75109   1.78282
 Alpha virt. eigenvalues --    1.79288   1.84229   1.88590   1.89374   1.91555
 Alpha virt. eigenvalues --    1.93197   1.93911   1.95070   1.95915   1.97007
 Alpha virt. eigenvalues --    2.00337   2.00988   2.01494   2.04119   2.04459
 Alpha virt. eigenvalues --    2.09152   2.10541   2.12801   2.13838   2.14845
 Alpha virt. eigenvalues --    2.18761   2.21618   2.22178   2.24205   2.26455
 Alpha virt. eigenvalues --    2.26858   2.28780   2.29762   2.33699   2.37019
 Alpha virt. eigenvalues --    2.37264   2.39385   2.41163   2.42995   2.45889
 Alpha virt. eigenvalues --    2.49539   2.59765   2.61249   2.64852   2.69944
 Alpha virt. eigenvalues --    2.76841   2.79965   2.80090   2.85815   2.89789
 Alpha virt. eigenvalues --    2.92427   2.94291   3.01020   3.08028   3.10891
 Alpha virt. eigenvalues --    3.14384   3.15812   3.31182   3.41378   3.55692
 Alpha virt. eigenvalues --    3.68918   3.75376   3.77747   3.82565   4.08797
 Alpha virt. eigenvalues --    4.33616   4.55734
          Condensed to atoms (all electrons):
              1          2          3          4          5          6
     1  C   10.291688  -0.668363  -2.908355   0.222968   2.379900  -0.138656
     2  H   -0.668363   1.661357   0.250920  -0.117702  -0.211277  -0.011675
     3  C   -2.908355   0.250920   9.850511  -0.625085  -3.119083   0.505456
     4  H    0.222968  -0.117702  -0.625085   2.018314   0.324691  -0.095960
     5  C    2.379900  -0.211277  -3.119083   0.324691   9.984060  -0.700373
     6  H   -0.138656  -0.011675   0.505456  -0.095960  -0.700373   1.660954
     7  C   -2.848350   0.121714   2.691973  -0.110280  -2.625985   0.348833
     8  H    0.120028   0.009562  -0.171135  -0.019562   0.411826  -0.065020
     9  C    0.994729   0.002935  -2.957923   0.090927   2.047209  -0.162244
    10  H    0.023753  -0.012746   0.133448   0.012806  -0.209543  -0.011137
    11  C   -1.668647   0.424186   1.579487  -0.190797  -2.476461   0.091772
    12  Cl   0.051965  -0.085798  -0.233363   0.000302   0.230292   0.003099
    13  O    0.013895   0.002523  -0.026944  -0.045807  -0.004686   0.002206
    14  H   -0.000351   0.000081   0.005779   0.001199  -0.000364   0.000274
    15  H   -0.000351   0.000081   0.005779   0.001199  -0.000364   0.000274
              7          8          9         10         11         12
     1  C   -2.848350   0.120028   0.994729   0.023753  -1.668647   0.051965
     2  H    0.121714   0.009562   0.002935  -0.012746   0.424186  -0.085798
     3  C    2.691973  -0.171135  -2.957923   0.133448   1.579487  -0.233363
     4  H   -0.110280  -0.019562   0.090927   0.012806  -0.190797   0.000302
     5  C   -2.625985   0.411826   2.047209  -0.209543  -2.476461   0.230292
     6  H    0.348833  -0.065020  -0.162244  -0.011137   0.091772   0.003099
     7  C    8.786274  -0.475896  -1.979629   0.133781   1.312892  -0.194818
     8  H   -0.475896   1.601818   0.314951  -0.088056  -0.216931   0.001809
     9  C   -1.979629   0.314951   9.453929  -0.659044  -1.637294   0.082422
    10  H    0.133781  -0.088056  -0.659044   1.639867   0.496917  -0.081277
    11  C    1.312892  -0.216931  -1.637294   0.496917   8.214430  -0.008743
    12  Cl  -0.194818   0.001809   0.082422  -0.081277  -0.008743  17.618821
    13  O   -0.003799  -0.000074   0.003158   0.000121  -0.006468   0.000108
    14  H   -0.000993   0.000018   0.000563  -0.000006  -0.000328   0.000024
    15  H   -0.000993   0.000018   0.000563  -0.000006  -0.000328   0.000024
             13         14         15
     1  C    0.013895  -0.000351  -0.000351
     2  H    0.002523   0.000081   0.000081
     3  C   -0.026944   0.005779   0.005779
     4  H   -0.045807   0.001199   0.001199
     5  C   -0.004686  -0.000364  -0.000364
     6  H    0.002206   0.000274   0.000274
     7  C   -0.003799  -0.000993  -0.000993
     8  H   -0.000074   0.000018   0.000018
     9  C    0.003158   0.000563   0.000563
    10  H    0.000121  -0.000006  -0.000006
    11  C   -0.006468  -0.000328  -0.000328
    12  Cl   0.000108   0.000024   0.000024
    13  O    7.735601   0.342252   0.342252
    14  H    0.342252   0.518791  -0.038474
    15  H    0.342252  -0.038474   0.518791
 Mulliken atomic charges:
              1
     1  C    0.134146
     2  H   -0.365798
     3  C    1.018535
     4  H   -0.467212
     5  C   -0.029843
     6  H   -0.427804
     7  C    0.845277
     8  H   -0.423357
     9  C    0.404748
    10  H   -0.378879
    11  C    0.086314
    12  Cl  -0.384867
    13  O   -0.354337
    14  H    0.171538
    15  H    0.171538
 Sum of Mulliken charges=   0.00000
 Atomic charges with hydrogens summed into heavy atoms:
              1
     1  C   -0.231652
     2  H    0.000000
     3  C    0.551323
     4  H    0.000000
     5  C   -0.457646
     6  H    0.000000
     7  C    0.421920
     8  H    0.000000
     9  C    0.025870
    10  H    0.000000
    11  C    0.086314
    12  Cl  -0.384867
    13  O   -0.011261
    14  H    0.000000
    15  H    0.000000
 Sum of Mulliken charges=   0.00000
 Electronic spatial extent (au):  <R**2>=  1819.6380
 Charge=     0.0000 electrons
 Dipole moment (field-independent basis, Debye):
    X=    -2.3016    Y=    -3.3829    Z=     0.0000  Tot=     4.0916
 Quadrupole moment (field-independent basis, Debye-Ang):
   XX=   -35.6437   YY=   -50.1477   ZZ=   -57.4241
   XY=     8.8103   XZ=     0.0000   YZ=     0.0000
 Traceless Quadrupole moment (field-independent basis, Debye-Ang):
   XX=    12.0948   YY=    -2.4092   ZZ=    -9.6856
   XY=     8.8103   XZ=     0.0000   YZ=     0.0000
 Octapole moment (field-independent basis, Debye-Ang**2):
  XXX=   -84.5405  YYY=   -41.9069  ZZZ=     0.0000  XYY=   -45.6560
  XXY=   -61.1573  XXZ=     0.0000  XZZ=   -19.5749  YZZ=    -6.9853
  YYZ=     0.0000  XYZ=     0.0000
 Hexadecapole moment (field-independent basis, Debye-Ang**3):
 XXXX=  -549.2467 YYYY= -1145.0040 ZZZZ=   -70.9229 XXXY=    41.6460
 XXXZ=     0.0000 YYYX=  -120.6687 YYYZ=     0.0000 ZZZX=     0.0000
 ZZZY=     0.0000 XXYY=  -153.7818 XXZZ=  -142.0527 YYZZ=  -207.2664
 XXYZ=     0.0000 YYXZ=     0.0000 ZZXY=   -48.9597
 N-N= 3.804036760025D+02 E-N=-2.571246441005D+03  KE= 7.651170465281D+02
 Symmetry A'   KE= 7.098529532254D+02
 Symmetry A"   KE= 5.526409330267D+01
 1\1\GINC-N086\FOpt\RMP2-FC\Aug-CC-pVDZ\C6H7Cl1O1\FYLIN\28-Mar-2016\1\\
 #MP2/aug-cc-pVDZ Opt=Z-matrix\\C2H...OHH 90.0 degrees, mp2/aug-cc-pVDZ
 \\0,1\C,0,0.17303,-1.226543,0.\H,0,-0.387009,-2.164857,0.\C,0,1.58008,
 -1.217204,0.\H,0,2.122475,-2.167243,0.\C,0,2.28666,0.,0.\H,0,3.380093,
 0.,0.\C,0,1.58008,1.217204,0.\H,0,2.122476,2.167243,0.\C,0,0.173029,1.
 226543,0.\H,0,-0.38701,2.164857,0.\C,0,-0.512547,0.,0.\Cl,0,-2.266648,
 0.,0.\X,4,1.,3,90.,5,0.,0\O,4,roh,13,90.,3,180.,0\H,14,0.9572,4,127.74
 ,13,90.,0\H,14,0.9572,4,127.74,13,-90.,0\\roh=2.33031722\\Version=AM64
 L-G03RevD.02\State=1-A'\HF=-765.691381\MP2=-766.8724982\RMSD=4.900e-09
 \RMSF=2.544e-03\Thermal=0.\Dipole=1.2026425,-0.8543782,0.\PG=CS [SG(C6
 H5Cl1O1),X(H2)]\\@


 IT IS IMPOSSIBLE TO MEDITATE ON TIME AND THE MYSTERY 
 OF NATURE WITHOUT AN OVERWHELMING EMOTION AT THE
 LIMITATIONS OF HUMAN INTELLIGENCE.

                                         -- ALFRED NORTH WHITEHEAD
 Job cpu time:  0 days  2 hours 18 minutes  9.6 seconds.
 File lengths (MBytes):  RWF=   5187 Int=      0 D2E=      0 Chk=     15 Scr=      1
 Normal termination of Gaussian 03 at Mon Mar 28 19:10:49 2016.
