 Entering Gaussian System, Link 0=g03
 Initial command:
 /opt/mackerell/apps/gaussian/g03/l1.exe /tmp/fylin/gauss28589/Gau-28592.inp -scrdir=/tmp/fylin/gauss28589/
 Entering Link 1 = /opt/mackerell/apps/gaussian/g03/l1.exe PID=     28594.
  
 Copyright (c) 1988,1990,1992,1993,1995,1998,2003,2004, Gaussian, Inc.
                  All Rights Reserved.
  
 This is the Gaussian(R) 03 program.  It is based on the
 the Gaussian(R) 98 system (copyright 1998, Gaussian, Inc.),
 the Gaussian(R) 94 system (copyright 1995, Gaussian, Inc.),
 the Gaussian 92(TM) system (copyright 1992, Gaussian, Inc.),
 the Gaussian 90(TM) system (copyright 1990, Gaussian, Inc.),
 the Gaussian 88(TM) system (copyright 1988, Gaussian, Inc.),
 the Gaussian 86(TM) system (copyright 1986, Carnegie Mellon
 University), and the Gaussian 82(TM) system (copyright 1983,
 Carnegie Mellon University). Gaussian is a federally registered
 trademark of Gaussian, Inc.
  
 This software contains proprietary and confidential information,
 including trade secrets, belonging to Gaussian, Inc.
  
 This software is provided under written license and may be
 used, copied, transmitted, or stored only in accord with that
 written license.
  
 The following legend is applicable only to US Government
 contracts under FAR:
  
                    RESTRICTED RIGHTS LEGEND
  
 Use, reproduction and disclosure by the US Government is
 subject to restrictions as set forth in subparagraphs (a)
 and (c) of the Commercial Computer Software - Restricted
 Rights clause in FAR 52.227-19.
  
 Gaussian, Inc.
 340 Quinnipiac St., Bldg. 40, Wallingford CT 06492
  
  
 ---------------------------------------------------------------
 Warning -- This program may not be used in any manner that
 competes with the business of Gaussian, Inc. or will provide
 assistance to any competitor of Gaussian, Inc.  The licensee
 of this program is prohibited from giving any competitor of
 Gaussian, Inc. access to this program.  By using this program,
 the user acknowledges that Gaussian, Inc. is engaged in the
 business of creating and licensing software in the field of
 computational chemistry and represents and warrants to the
 licensee that it is not a competitor of Gaussian, Inc. and that
 it will not use this program in any manner prohibited above.
 ---------------------------------------------------------------
  

 Cite this work as:
 Gaussian 03, Revision D.02,
 M. J. Frisch, G. W. Trucks, H. B. Schlegel, G. E. Scuseria, 
 M. A. Robb, J. R. Cheeseman, J. A. Montgomery, Jr., T. Vreven, 
 K. N. Kudin, J. C. Burant, J. M. Millam, S. S. Iyengar, J. Tomasi, 
 V. Barone, B. Mennucci, M. Cossi, G. Scalmani, N. Rega, 
 G. A. Petersson, H. Nakatsuji, M. Hada, M. Ehara, K. Toyota, 
 R. Fukuda, J. Hasegawa, M. Ishida, T. Nakajima, Y. Honda, O. Kitao, 
 H. Nakai, M. Klene, X. Li, J. E. Knox, H. P. Hratchian, J. B. Cross, 
 V. Bakken, C. Adamo, J. Jaramillo, R. Gomperts, R. E. Stratmann, 
 O. Yazyev, A. J. Austin, R. Cammi, C. Pomelli, J. W. Ochterski, 
 P. Y. Ayala, K. Morokuma, G. A. Voth, P. Salvador, J. J. Dannenberg, 
 V. G. Zakrzewski, S. Dapprich, A. D. Daniels, M. C. Strain, 
 O. Farkas, D. K. Malick, A. D. Rabuck, K. Raghavachari, 
 J. B. Foresman, J. V. Ortiz, Q. Cui, A. G. Baboul, S. Clifford, 
 J. Cioslowski, B. B. Stefanov, G. Liu, A. Liashenko, P. Piskorz, 
 I. Komaromi, R. L. Martin, D. J. Fox, T. Keith, M. A. Al-Laham, 
 C. Y. Peng, A. Nanayakkara, M. Challacombe, P. M. W. Gill, 
 B. Johnson, W. Chen, M. W. Wong, C. Gonzalez, and J. A. Pople, 
 Gaussian, Inc., Wallingford CT, 2004.
 
 ******************************************
 Gaussian 03:  AM64L-G03RevD.02  1-Mar-2006
                22-Mar-2016 
 ******************************************
 %CHK=CHLB_OPT_FREQ_MP2
 %MEM=1200MB
 %NPROCSHARED=2
 Will use up to    2 processors via shared memory.
 ----------------------------------------------------------------------
 #MP2/aug-cc-pVDZ opt=(tight,maxcycle=200) pop=(mk,dipole) density=curr
 ent
 ----------------------------------------------------------------------
 1/6=200,7=10,18=20,38=1/1,3;
 2/9=110,17=6,18=5,40=1/2;
 3/5=16,7=10,11=9,16=1,25=1,30=1/1,2,3;
 4//1;
 5/5=2,38=5/2;
 8/6=4,10=1/1;
 9/15=2,16=-3/6;
 10/5=1/2;
 6/7=2,8=2,9=2,10=2,15=24,20=1,22=-1/1,2;
 7/12=2/1,2,3,16;
 1/6=200,18=20/3(3);
 2/9=110/2;
 6/7=2,8=2,9=2,10=2,15=24,20=1,22=-1/1,2;
 99//99;
 2/9=110/2;
 3/5=16,7=10,11=9,16=1,25=1,30=1/1,2,3;
 4/5=5,16=3/1;
 5/5=2,38=5/2;
 8/6=4,10=1/1;
 9/15=2,16=-3/6;
 10/5=1/2;
 7/12=2/1,2,3,16;
 1/6=200,18=20/3(-8);
 2/9=110/2;
 6/7=2,8=2,9=2,10=2,15=24,20=1,22=-1/1,2;
 99//99;
 ---------------------------------
 CHLB OPTIMIZED AT MP2/aug-cc-pVDZ
 ---------------------------------
 Symbolic Z-matrix:
 Charge =  0 Multiplicity = 1
 C                    -0.00615  -0.01051   0. 
 H                    -0.5423   -0.93784   0. 
 C                     1.38171  -0.01093   0. 
 H                     1.91745  -0.93923   0. 
 C                     2.07276   1.19084   0. 
 H                     3.1462    1.19085   0. 
 C                     1.38146   2.39255   0. 
 H                     1.91726   3.32038   0. 
 C                    -0.00631   2.39231   0. 
 H                    -0.54218   3.31925   0. 
 C                    -0.69905   1.19089   0. 
 Cl                   -2.42917   1.19084   0. 
 

 GradGradGradGradGradGradGradGradGradGradGradGradGradGradGradGradGradGrad
 Berny optimization.
 Initialization pass.
                           ----------------------------
                           !    Initial Parameters    !
                           ! (Angstroms and Degrees)  !
 --------------------------                            --------------------------
 ! Name  Definition              Value          Derivative Info.                !
 --------------------------------------------------------------------------------
 ! R1    R(1,2)                  1.0712         estimate D2E/DX2                !
 ! R2    R(1,3)                  1.3879         estimate D2E/DX2                !
 ! R3    R(1,11)                 1.3869         estimate D2E/DX2                !
 ! R4    R(3,4)                  1.0718         estimate D2E/DX2                !
 ! R5    R(3,5)                  1.3863         estimate D2E/DX2                !
 ! R6    R(5,6)                  1.0734         estimate D2E/DX2                !
 ! R7    R(5,7)                  1.3864         estimate D2E/DX2                !
 ! R8    R(7,8)                  1.0714         estimate D2E/DX2                !
 ! R9    R(7,9)                  1.3878         estimate D2E/DX2                !
 ! R10   R(9,10)                 1.0707         estimate D2E/DX2                !
 ! R11   R(9,11)                 1.3868         estimate D2E/DX2                !
 ! R12   R(11,12)                1.7301         estimate D2E/DX2                !
 ! A1    A(2,1,3)              120.0177         estimate D2E/DX2                !
 ! A2    A(2,1,11)             119.9911         estimate D2E/DX2                !
 ! A3    A(3,1,11)             119.9913         estimate D2E/DX2                !
 ! A4    A(1,3,4)              120.0074         estimate D2E/DX2                !
 ! A5    A(1,3,5)              119.8827         estimate D2E/DX2                !
 ! A6    A(4,3,5)              120.1099         estimate D2E/DX2                !
 ! A7    A(3,5,6)              119.9006         estimate D2E/DX2                !
 ! A8    A(3,5,7)              120.1897         estimate D2E/DX2                !
 ! A9    A(6,5,7)              119.9097         estimate D2E/DX2                !
 ! A10   A(5,7,8)              120.0843         estimate D2E/DX2                !
 ! A11   A(5,7,9)              119.9003         estimate D2E/DX2                !
 ! A12   A(8,7,9)              120.0153         estimate D2E/DX2                !
 ! A13   A(7,9,10)             120.0226         estimate D2E/DX2                !
 ! A14   A(7,9,11)             119.9777         estimate D2E/DX2                !
 ! A15   A(10,9,11)            119.9997         estimate D2E/DX2                !
 ! A16   A(1,11,9)             120.0583         estimate D2E/DX2                !
 ! A17   A(1,11,12)            119.9723         estimate D2E/DX2                !
 ! A18   A(9,11,12)            119.9694         estimate D2E/DX2                !
 ! D1    D(2,1,3,4)              0.0            estimate D2E/DX2                !
 ! D2    D(2,1,3,5)            180.0            estimate D2E/DX2                !
 ! D3    D(11,1,3,4)           180.0            estimate D2E/DX2                !
 ! D4    D(11,1,3,5)             0.0            estimate D2E/DX2                !
 ! D5    D(2,1,11,9)           180.0            estimate D2E/DX2                !
 ! D6    D(2,1,11,12)            0.0            estimate D2E/DX2                !
 ! D7    D(3,1,11,9)             0.0            estimate D2E/DX2                !
 ! D8    D(3,1,11,12)          180.0            estimate D2E/DX2                !
 ! D9    D(1,3,5,6)            180.0            estimate D2E/DX2                !
 ! D10   D(1,3,5,7)              0.0            estimate D2E/DX2                !
 ! D11   D(4,3,5,6)              0.0            estimate D2E/DX2                !
 ! D12   D(4,3,5,7)            180.0            estimate D2E/DX2                !
 ! D13   D(3,5,7,8)            180.0            estimate D2E/DX2                !
 ! D14   D(3,5,7,9)              0.0            estimate D2E/DX2                !
 ! D15   D(6,5,7,8)              0.0            estimate D2E/DX2                !
 ! D16   D(6,5,7,9)            180.0            estimate D2E/DX2                !
 ! D17   D(5,7,9,10)           180.0            estimate D2E/DX2                !
 ! D18   D(5,7,9,11)             0.0            estimate D2E/DX2                !
 ! D19   D(8,7,9,10)             0.0            estimate D2E/DX2                !
 ! D20   D(8,7,9,11)           180.0            estimate D2E/DX2                !
 ! D21   D(7,9,11,1)             0.0            estimate D2E/DX2                !
 ! D22   D(7,9,11,12)          180.0            estimate D2E/DX2                !
 ! D23   D(10,9,11,1)          180.0            estimate D2E/DX2                !
 ! D24   D(10,9,11,12)           0.0            estimate D2E/DX2                !
 --------------------------------------------------------------------------------
 Trust Radius=3.00D-01 FncErr=1.00D-07 GrdErr=1.00D-07
 Number of steps in this run= 100 maximum allowed number of steps= 100.
 GradGradGradGradGradGradGradGradGradGradGradGradGradGradGradGradGradGrad

                          Input orientation:                          
 ---------------------------------------------------------------------
 Center     Atomic     Atomic              Coordinates (Angstroms)
 Number     Number      Type              X           Y           Z
 ---------------------------------------------------------------------
    1          6             0       -0.006150   -0.010510    0.000000
    2          1             0       -0.542300   -0.937840    0.000000
    3          6             0        1.381710   -0.010930    0.000000
    4          1             0        1.917450   -0.939230    0.000000
    5          6             0        2.072760    1.190840    0.000000
    6          1             0        3.146200    1.190850    0.000000
    7          6             0        1.381460    2.392550    0.000000
    8          1             0        1.917260    3.320380    0.000000
    9          6             0       -0.006310    2.392310    0.000000
   10          1             0       -0.542180    3.319250    0.000000
   11          6             0       -0.699050    1.190890    0.000000
   12         17             0       -2.429170    1.190840    0.000000
 ---------------------------------------------------------------------
                    Distance matrix (angstroms):
                    1          2          3          4          5
     1  C    0.000000
     2  H    1.071167   0.000000
     3  C    1.387860   2.135644   0.000000
     4  H    2.136061   2.459750   1.071801   0.000000
     5  C    2.401064   3.371916   1.386290   2.135725   0.000000
     6  H    3.373511   4.258680   2.134877   2.459079   1.073440
     7  C    2.774916   3.846082   2.403480   3.374617   1.386363
     8  H    3.846340   4.917507   3.374084   4.259610   2.135210
     9  C    2.402820   3.373008   2.775277   3.847078   2.401263
    10  H    3.372630   4.257090   3.845966   4.917767   3.371652
    11  C    1.386893   2.134493   2.402901   3.373942   2.771810
    12  Cl   2.704490   2.844566   3.995880   4.840486   4.501930
                    6          7          8          9         10
     6  H    0.000000
     7  C    2.135039   0.000000
     8  H    2.458697   1.071424   0.000000
     9  C    3.373696   1.387770   2.135752   0.000000
    10  H    4.258431   2.135220   2.459440   1.070689   0.000000
    11  C    3.845250   2.402605   3.373397   1.386830   2.134133
    12  Cl   5.575370   3.995624   4.840082   2.704400   2.844444
                   11         12
    11  C    0.000000
    12  Cl   1.730120   0.000000
 Stoichiometry    C6H5Cl
 Framework group  CS[SG(C6H5Cl)]
 Deg. of freedom    21
 Full point group                 CS
 Largest Abelian subgroup         CS      NOp   2
 Largest concise Abelian subgroup C1      NOp   1
                         Standard orientation:                         
 ---------------------------------------------------------------------
 Center     Atomic     Atomic              Coordinates (Angstroms)
 Number     Number      Type              X           Y           Z
 ---------------------------------------------------------------------
    1          6             0       -1.201330   -0.177643    0.000000
    2          1             0       -2.128714    0.358413    0.000000
    3          6             0       -1.201609   -1.565503    0.000000
    4          1             0       -2.129855   -2.101337    0.000000
    5          6             0        0.000231   -2.256431    0.000000
    6          1             0        0.000350   -3.329871    0.000000
    7          6             0        1.201871   -1.565010    0.000000
    8          1             0        2.129755   -2.100716    0.000000
    9          6             0        1.201490   -0.177240    0.000000
   10          1             0        2.128376    0.358724    0.000000
   11          6             0        0.000000    0.515379    0.000000
   12         17             0       -0.000225    2.245499    0.000000
 ---------------------------------------------------------------------
 Rotational constants (GHZ):      5.7706817      1.5803847      1.2406223
 Standard basis: Aug-CC-pVDZ (5D, 7F)
 There are   150 symmetry adapted basis functions of A'  symmetry.
 There are    60 symmetry adapted basis functions of A"  symmetry.
 Integral buffers will be    131072 words long.
 Raffenetti 1 integral format.
 Two-electron integral symmetry is turned on.
   210 basis functions,   396 primitive gaussians,   224 cartesian basis functions
    29 alpha electrons       29 beta electrons
       nuclear repulsion energy       317.1641475977 Hartrees.
 NAtoms=   12 NActive=   12 NUniq=   12 SFac= 7.50D-01 NAtFMM=   80 NAOKFM=F Big=F
 One-electron integrals computed using PRISM.
 NBasis=   210 RedAO= T  NBF=   150    60
 NBsUse=   210 1.00D-06 NBFU=   150    60
 Harris functional with IExCor=  205 diagonalized for initial guess.
 ExpMin= 2.97D-02 ExpMax= 1.28D+05 ExpMxC= 1.24D+03 IAcc=3 IRadAn=         5 AccDes= 0.00D+00
 HarFok:  IExCor= 205 AccDes= 0.00D+00 IRadAn=         5 IDoV=1
 ScaDFX=  1.000000  1.000000  1.000000  1.000000
 Initial guess orbital symmetries:
       Occupied  (A') (A') (A') (A') (A') (A') (A') (A') (A') (A')
                 (A") (A') (A') (A') (A') (A') (A') (A') (A') (A')
                 (A') (A') (A") (A') (A') (A") (A") (A') (A")
       Virtual   (A") (A") (A') (A") (A') (A') (A') (A') (A') (A')
                 (A") (A') (A") (A') (A") (A') (A') (A') (A') (A')
                 (A') (A') (A") (A") (A') (A') (A") (A') (A') (A')
                 (A') (A") (A') (A') (A') (A") (A') (A') (A') (A')
                 (A') (A") (A') (A') (A') (A') (A') (A') (A") (A')
                 (A") (A') (A') (A') (A") (A') (A") (A') (A") (A")
                 (A') (A") (A') (A') (A') (A") (A') (A") (A') (A')
                 (A') (A') (A") (A") (A') (A') (A') (A") (A') (A')
                 (A') (A') (A') (A') (A") (A') (A") (A") (A') (A')
                 (A') (A') (A") (A") (A') (A") (A") (A') (A") (A')
                 (A') (A") (A') (A") (A") (A') (A') (A') (A") (A")
                 (A') (A") (A') (A') (A') (A') (A") (A') (A') (A')
                 (A") (A') (A') (A') (A') (A') (A") (A') (A") (A')
                 (A") (A") (A') (A') (A') (A') (A') (A") (A') (A")
                 (A') (A') (A') (A") (A') (A') (A') (A") (A") (A')
                 (A") (A") (A') (A') (A') (A') (A") (A') (A') (A")
                 (A') (A') (A') (A") (A") (A') (A') (A') (A') (A')
                 (A') (A') (A') (A') (A') (A') (A') (A') (A') (A')
                 (A')
 The electronic state of the initial guess is 1-A'.
 Requested convergence on RMS density matrix=1.00D-08 within 128 cycles.
 Requested convergence on MAX density matrix=1.00D-06.
 Requested convergence on             energy=1.00D-06.
 No special actions if energy rises.
 SCF Done:  E(RHF) =  -689.650138444     A.U. after   14 cycles
             Convg  =    0.7774D-08             -V/T =  1.9999
             S**2   =   0.0000
 ExpMin= 2.97D-02 ExpMax= 1.28D+05 ExpMxC= 1.24D+03 IAcc=3 IRadAn=         5 AccDes= 0.00D+00
 HarFok:  IExCor= 205 AccDes= 0.00D+00 IRadAn=         5 IDoV=1
 ScaDFX=  1.000000  1.000000  1.000000  1.000000
 Range of M.O.s used for correlation:    12   210
 NBasis=   210 NAE=    29 NBE=    29 NFC=    11 NFV=     0
 NROrb=    199 NOA=    18 NOB=    18 NVA=   181 NVB=   181

 **** Warning!!: The largest alpha MO coefficient is  0.17211450D+03

 Fully direct method using O(ONN) memory.
 JobTyp=1 Pass  1:  I=  12 to  21 NPSUse=  2 ParTrn=T ParDer=T DoDerP=T.
 JobTyp=1 Pass  2:  I=  22 to  29 NPSUse=  2 ParTrn=T ParDer=T DoDerP=T.
 Spin components of T(2) and E(2):
     alpha-alpha T2 =       0.5248756126D-01 E2=     -0.1283032770D+00
     alpha-beta  T2 =       0.2644105092D+00 E2=     -0.6965796804D+00
     beta-beta   T2 =       0.5248756126D-01 E2=     -0.1283032770D+00
 ANorm=    0.1170207517D+01
 E2 =    -0.9531862344D+00 EUMP2 =    -0.69060332467814D+03
 DoAtom=TTTTTTTTTTTT
          Differentiating once with respect to electric field.
                with respect to dipole field.
          Differentiating once with respect to nuclear coordinates.
          There are   1 degrees of freedom in the 1st order CPHF.
 Petite list used in FoFDir.
 MinBra= 0 MaxBra= 2 Meth= 1.
 IRaf=       0 NMat=   1 IRICut=       1 DoRegI=T DoRafI=F ISym2E= 1 JSym2E=1.
     1 vectors were produced by pass  0.
 AX will form   1 AO Fock derivatives at one time.
     1 vectors were produced by pass  1.
     1 vectors were produced by pass  2.
     1 vectors were produced by pass  3.
     1 vectors were produced by pass  4.
     1 vectors were produced by pass  5.
     1 vectors were produced by pass  6.
     1 vectors were produced by pass  7.
     1 vectors were produced by pass  8.
     1 vectors were produced by pass  9.
     1 vectors were produced by pass 10.
     1 vectors were produced by pass 11.
     1 vectors were produced by pass 12.
     1 vectors were produced by pass 13.
     1 vectors were produced by pass 14.
 Inv2:  IOpt= 1 Iter= 1 AM= 3.04D-16 Conv= 1.00D-12.
 Inverted reduced A of dimension   15 with in-core refinement.
 End of Minotr Frequency-dependent properties file   721 does not exist.

 **********************************************************************

            Population analysis using the MP2 density.

 **********************************************************************

 Orbital symmetries:
       Occupied  (A') (A') (A') (A') (A') (A') (A') (A') (A') (A')
                 (A") (A') (A') (A') (A') (A') (A') (A') (A') (A')
                 (A') (A') (A") (A') (A') (A") (A') (A") (A")
       Virtual   (A') (A') (A') (A') (A') (A") (A") (A') (A") (A')
                 (A') (A") (A') (A') (A") (A') (A') (A') (A') (A')
                 (A") (A') (A') (A") (A") (A") (A') (A') (A') (A')
                 (A') (A') (A') (A') (A') (A') (A") (A") (A') (A')
                 (A') (A') (A') (A') (A") (A') (A') (A') (A") (A")
                 (A') (A") (A') (A") (A') (A') (A') (A') (A') (A")
                 (A") (A') (A") (A') (A') (A') (A') (A') (A") (A')
                 (A') (A') (A') (A") (A') (A") (A') (A") (A') (A')
                 (A") (A') (A') (A') (A') (A') (A") (A") (A") (A")
                 (A") (A") (A') (A') (A') (A") (A') (A') (A") (A')
                 (A") (A') (A') (A') (A") (A") (A') (A') (A") (A")
                 (A') (A') (A') (A") (A') (A") (A') (A') (A') (A')
                 (A') (A") (A') (A') (A') (A') (A') (A') (A") (A")
                 (A") (A") (A') (A') (A') (A') (A") (A') (A") (A')
                 (A') (A') (A') (A") (A') (A') (A") (A") (A') (A')
                 (A") (A") (A') (A') (A') (A') (A") (A') (A') (A")
                 (A') (A') (A') (A") (A") (A') (A') (A') (A') (A')
                 (A') (A') (A') (A') (A') (A') (A') (A') (A') (A')
                 (A')
 The electronic state is 1-A'.
 Alpha  occ. eigenvalues -- -104.84068 -11.30778 -11.25441 -11.25435 -11.25294
 Alpha  occ. eigenvalues --  -11.25277 -11.24890 -10.56712  -8.03497  -8.03159
 Alpha  occ. eigenvalues --   -8.03147  -1.19829  -1.12661  -1.03787  -1.00293
 Alpha  occ. eigenvalues --   -0.85185  -0.82547  -0.71736  -0.65290  -0.65209
 Alpha  occ. eigenvalues --   -0.60709  -0.59395  -0.54772  -0.51907  -0.51452
 Alpha  occ. eigenvalues --   -0.47196  -0.45686  -0.35299  -0.33789
 Alpha virt. eigenvalues --    0.03349   0.04024   0.04636   0.05901   0.06346
 Alpha virt. eigenvalues --    0.09376   0.09730   0.09779   0.11835   0.12027
 Alpha virt. eigenvalues --    0.13240   0.13779   0.14381   0.14420   0.14639
 Alpha virt. eigenvalues --    0.14942   0.16027   0.16159   0.17184   0.17888
 Alpha virt. eigenvalues --    0.17937   0.18141   0.19201   0.19248   0.20230
 Alpha virt. eigenvalues --    0.20616   0.21726   0.22142   0.26262   0.26789
 Alpha virt. eigenvalues --    0.28905   0.29789   0.30284   0.32588   0.32948
 Alpha virt. eigenvalues --    0.33441   0.33571   0.35534   0.35567   0.36174
 Alpha virt. eigenvalues --    0.38003   0.38410   0.40314   0.40410   0.41705
 Alpha virt. eigenvalues --    0.41845   0.43068   0.43686   0.44664   0.46366
 Alpha virt. eigenvalues --    0.46793   0.49988   0.51085   0.53597   0.56352
 Alpha virt. eigenvalues --    0.56974   0.57022   0.58416   0.58437   0.58881
 Alpha virt. eigenvalues --    0.59985   0.61439   0.64101   0.64284   0.64303
 Alpha virt. eigenvalues --    0.66838   0.67115   0.67750   0.67899   0.68509
 Alpha virt. eigenvalues --    0.70360   0.71337   0.73362   0.73727   0.76347
 Alpha virt. eigenvalues --    0.76351   0.77027   0.77203   0.79872   0.80869
 Alpha virt. eigenvalues --    0.83870   0.84543   0.85500   0.86075   0.88361
 Alpha virt. eigenvalues --    0.90114   0.90400   0.91773   0.93335   0.94164
 Alpha virt. eigenvalues --    0.94796   0.96603   0.97178   0.98082   0.98137
 Alpha virt. eigenvalues --    0.98817   1.01094   1.04493   1.07015   1.09718
 Alpha virt. eigenvalues --    1.12346   1.13349   1.14903   1.17624   1.20224
 Alpha virt. eigenvalues --    1.21607   1.28118   1.34660   1.41424   1.41729
 Alpha virt. eigenvalues --    1.43482   1.47319   1.47441   1.47445   1.48709
 Alpha virt. eigenvalues --    1.48870   1.51913   1.54578   1.55587   1.55676
 Alpha virt. eigenvalues --    1.59652   1.60036   1.60811   1.61981   1.63917
 Alpha virt. eigenvalues --    1.64876   1.64880   1.65808   1.69923   1.70890
 Alpha virt. eigenvalues --    1.71144   1.74170   1.78045   1.78888   1.82751
 Alpha virt. eigenvalues --    1.87290   1.88932   1.89186   1.93407   1.94305
 Alpha virt. eigenvalues --    1.94469   1.95395   1.96529   2.02147   2.02152
 Alpha virt. eigenvalues --    2.05051   2.09816   2.11990   2.12056   2.12688
 Alpha virt. eigenvalues --    2.19255   2.19575   2.20019   2.24822   2.27609
 Alpha virt. eigenvalues --    2.28427   2.29378   2.33576   2.34501   2.37295
 Alpha virt. eigenvalues --    2.38866   2.42867   2.45452   2.61609   2.64299
 Alpha virt. eigenvalues --    2.71666   2.80446   2.81924   2.82302   2.93596
 Alpha virt. eigenvalues --    2.93970   2.98828   3.12836   3.14022   3.19275
 Alpha virt. eigenvalues --    3.21128   3.36063   3.43681   3.60743   3.84813
 Alpha virt. eigenvalues --    4.59260
          Condensed to atoms (all electrons):
              1          2          3          4          5          6
     1  C   18.987462  -1.195805  -4.835834   0.532240   1.940043  -0.208163
     2  H   -1.195805   2.133294   0.160275  -0.140168  -0.284943  -0.012819
     3  C   -4.835834   0.160275  16.520911  -0.974875  -4.842224   0.470948
     4  H    0.532240  -0.140168  -0.974875   2.023822   0.556528  -0.101566
     5  C    1.940043  -0.284943  -4.842224   0.556528  15.383879  -0.983744
     6  H   -0.208163  -0.012819   0.470948  -0.101566  -0.983744   2.039393
     7  C   -4.445226   0.150921   2.633671  -0.230985  -4.847085   0.470991
     8  H    0.162194   0.012304  -0.231586  -0.024884   0.558788  -0.101741
     9  C   -0.416913   0.032610  -4.444634   0.161643   1.942593  -0.208022
    10  H    0.032435  -0.013168   0.151272   0.012305  -0.285317  -0.012855
    11  C   -5.160764   0.679632   0.924749  -0.326632  -3.712186   0.135159
    12  Cl   0.021949  -0.071910  -0.259050   0.002006   0.222428   0.002916
              7          8          9         10         11         12
     1  C   -4.445226   0.162194  -0.416913   0.032435  -5.160764   0.021949
     2  H    0.150921   0.012304   0.032610  -0.013168   0.679632  -0.071910
     3  C    2.633671  -0.231586  -4.444634   0.151272   0.924749  -0.259050
     4  H   -0.230985  -0.024884   0.161643   0.012305  -0.326632   0.002006
     5  C   -4.847085   0.558788   1.942593  -0.285317  -3.712186   0.222428
     6  H    0.470991  -0.101741  -0.208022  -0.012855   0.135159   0.002916
     7  C   16.534237  -0.979774  -4.845944   0.162712   0.927435  -0.259245
     8  H   -0.979774   2.026028   0.534294  -0.140280  -0.327216   0.002021
     9  C   -4.845944   0.534294  19.003443  -1.201364  -5.168130   0.022178
    10  H    0.162712  -0.140280  -1.201364   2.135490   0.681610  -0.071971
    11  C    0.927435  -0.327216  -5.168130   0.681610  17.884011  -0.177136
    12  Cl  -0.259245   0.002021   0.022178  -0.071971  -0.177136  17.814644
 Mulliken atomic charges:
              1
     1  C    0.586380
     2  H   -0.450223
     3  C    0.726376
     4  H   -0.489436
     5  C    0.351240
     6  H   -0.490497
     7  C    0.728293
     8  H   -0.490151
     9  C    0.588246
    10  H   -0.450868
    11  C   -0.360533
    12  Cl  -0.248828
 Sum of Mulliken charges=   0.00000
 Atomic charges with hydrogens summed into heavy atoms:
              1
     1  C    0.136157
     2  H    0.000000
     3  C    0.236941
     4  H    0.000000
     5  C   -0.139257
     6  H    0.000000
     7  C    0.238143
     8  H    0.000000
     9  C    0.137378
    10  H    0.000000
    11  C   -0.360533
    12  Cl  -0.248828
 Sum of Mulliken charges=   0.00000
 Electronic spatial extent (au):  <R**2>=   894.1892
 Charge=     0.0000 electrons
 Dipole moment (field-independent basis, Debye):
    X=     0.0003    Y=    -1.6954    Z=     0.0000  Tot=     1.6954
 Quadrupole moment (field-independent basis, Debye-Ang):
   XX=   -43.6500   YY=   -47.0434   ZZ=   -52.4475
   XY=     0.0012   XZ=     0.0000   YZ=     0.0000
 Traceless Quadrupole moment (field-independent basis, Debye-Ang):
   XX=     4.0636   YY=     0.6703   ZZ=    -4.7338
   XY=     0.0012   XZ=     0.0000   YZ=     0.0000
 Octapole moment (field-independent basis, Debye-Ang**2):
  XXX=     0.0011  YYY=    -1.8423  ZZZ=     0.0000  XYY=    -0.0009
  XXY=    -0.9188  XXZ=     0.0000  XZZ=     0.0017  YZZ=     7.0725
  YYZ=     0.0000  XYZ=     0.0000
 Hexadecapole moment (field-independent basis, Debye-Ang**3):
 XXXX=  -285.0285 YYYY=  -802.2458 ZZZZ=   -63.6404 XXXY=     0.0228
 XXXZ=     0.0000 YYYX=     0.0148 YYYZ=     0.0000 ZZZX=     0.0000
 ZZZY=     0.0000 XXYY=  -185.1322 XXZZ=   -69.2458 YYZZ=  -165.4748
 XXYZ=     0.0000 YYXZ=     0.0000 ZZXY=     0.0043
 N-N= 3.171641475977D+02 E-N=-2.264301154798D+03  KE= 6.904571159936D+02
 Symmetry A'   KE= 6.382990140059D+02
 Symmetry A"   KE= 5.215810198769D+01
 Merz-Kollman atomic radii used.

 **********************************************************************

          Electrostatic Properties Using The MP2 Density

 **********************************************************************

       Atomic Center    1 is at  -1.201330 -0.177643  0.000000
       Atomic Center    2 is at  -2.128714  0.358413  0.000000
       Atomic Center    3 is at  -1.201609 -1.565503  0.000000
       Atomic Center    4 is at  -2.129855 -2.101337  0.000000
       Atomic Center    5 is at   0.000231 -2.256431  0.000000
       Atomic Center    6 is at   0.000350 -3.329871  0.000000
       Atomic Center    7 is at   1.201871 -1.565010  0.000000
       Atomic Center    8 is at   2.129755 -2.100716  0.000000
       Atomic Center    9 is at   1.201490 -0.177240  0.000000
       Atomic Center   10 is at   2.128376  0.358724  0.000000
       Atomic Center   11 is at   0.000000  0.515379  0.000000
       Atomic Center   12 is at  -0.000225  2.245499  0.000000
     735 points will be used for fitting atomic charges
 Fitting point charges to eletrostatic potential
 The dipole moment will be constrained to the correct value
 Charges from ESP fit, RMS=   0.00188 RRMS=   0.20648:
 Charge=   0.00000 Dipole=     0.0003    -1.6954     0.0000 Tot=     1.6954
              1
     1  C   -0.022054
     2  H    0.111799
     3  C   -0.173464
     4  H    0.142162
     5  C   -0.101295
     6  H    0.127562
     7  C   -0.201627
     8  H    0.151672
     9  C   -0.004584
    10  H    0.108387
    11  C   -0.058329
    12  Cl  -0.080230
 -----------------------------------------------------------------

              Electrostatic Properties (Atomic Units)

 -----------------------------------------------------------------
    Center     Electric         -------- Electric Field --------
               Potential          X             Y             Z
 -----------------------------------------------------------------
    1 Atom    -14.730414
    2 Atom     -1.070923
    3 Atom    -14.730315
    4 Atom     -1.072489
    5 Atom    -14.734638
    6 Atom     -1.076619
    7 Atom    -14.730367
    8 Atom     -1.072551
    9 Atom    -14.730476
   10 Atom     -1.070948
   11 Atom    -14.677089
   12 Atom    -64.388794
 -----------------------------------------------------------------
 ***** Axes restored to original set *****
 -------------------------------------------------------------------
 Center     Atomic                   Forces (Hartrees/Bohr)
 Number     Number              X              Y              Z
 -------------------------------------------------------------------
    1          6          -0.003828862   -0.008403762    0.000000000
    2          1          -0.009210890   -0.013822953    0.000000000
    3          6          -0.000454493    0.000518984    0.000000000
    4          1           0.007196468   -0.014381455    0.000000000
    5          6           0.009474309    0.000020640    0.000000000
    6          1           0.015130500    0.000015756    0.000000000
    7          6          -0.000427048   -0.000777248    0.000000000
    8          1           0.007327325    0.014652854    0.000000000
    9          6          -0.003654160    0.008088179    0.000000000
   10          1          -0.009394562    0.014144343    0.000000000
   11          6          -0.001221028   -0.000050119    0.000000000
   12         17          -0.010937559   -0.000005220    0.000000000
 -------------------------------------------------------------------
 Cartesian Forces:  Max     0.015130500 RMS     0.006864527

 GradGradGradGradGradGradGradGradGradGradGradGradGradGradGradGradGradGrad
 Berny optimization.
 Internal  Forces:  Max     0.021390899 RMS     0.008493212
 Search for a local minimum.
 Step number   1 out of a maximum of 100
 All quantities printed in internal units (Hartrees-Bohrs-Radians)
 Second derivative matrix not updated -- first step.
     Eigenvalues ---    0.02254   0.02255   0.02257   0.02258   0.02261
     Eigenvalues ---    0.02262   0.02263   0.02267   0.02270   0.16000
     Eigenvalues ---    0.16000   0.16000   0.16000   0.16000   0.22000
     Eigenvalues ---    0.22000   0.23487   0.25000   0.32496   0.36799
     Eigenvalues ---    0.37003   0.37051   0.37083   0.37143   0.43159
     Eigenvalues ---    0.43457   0.47701   0.47829   0.47915   0.47936
     Eigenvalues --- 1000.000001000.000001000.000001000.000001000.00000
     Eigenvalues --- 1000.000001000.000001000.000001000.000001000.00000
     Eigenvalues --- 1000.000001000.000001000.000001000.000001000.00000
     Eigenvalues --- 1000.000001000.000001000.000001000.000001000.00000
     Eigenvalues --- 1000.000001000.000001000.000001000.00000
 RFO step:  Lambda=-9.06977045D-03.
 Linear search not attempted -- first point.
 Iteration  1 RMS(Cart)=  0.03119216 RMS(Int)=  0.00009421
 Iteration  2 RMS(Cart)=  0.00010831 RMS(Int)=  0.00000008
 Iteration  3 RMS(Cart)=  0.00000001 RMS(Int)=  0.00000008
 Variable       Old X    -DE/DX   Delta X   Delta X   Delta X     New X
                                 (Linear)    (Quad)   (Total)
    R1        2.02421   0.01658   0.00000   0.04364   0.04364   2.06785
    R2        2.62268   0.01909   0.00000   0.03927   0.03927   2.66194
    R3        2.62085   0.01906   0.00000   0.03899   0.03899   2.65984
    R4        2.02541   0.01605   0.00000   0.04234   0.04234   2.06776
    R5        2.61971   0.02139   0.00000   0.04385   0.04385   2.66356
    R6        2.02851   0.01513   0.00000   0.04013   0.04013   2.06864
    R7        2.61985   0.02132   0.00000   0.04371   0.04371   2.66356
    R8        2.02470   0.01635   0.00000   0.04308   0.04308   2.06778
    R9        2.62251   0.01916   0.00000   0.03941   0.03941   2.66192
   R10        2.02331   0.01695   0.00000   0.04454   0.04454   2.06785
   R11        2.62073   0.01914   0.00000   0.03915   0.03915   2.65988
   R12        3.26945   0.01094   0.00000   0.03274   0.03274   3.30220
    A1        2.09470   0.00266   0.00000   0.01317   0.01317   2.10788
    A2        2.09424   0.00052   0.00000   0.00054   0.00054   2.09478
    A3        2.09424  -0.00318   0.00000  -0.01371  -0.01371   2.08053
    A4        2.09452  -0.00195   0.00000  -0.01029  -0.01028   2.08424
    A5        2.09235   0.00196   0.00000   0.00912   0.00912   2.10147
    A6        2.09631  -0.00001   0.00000   0.00116   0.00116   2.09748
    A7        2.09266   0.00105   0.00000   0.00422   0.00422   2.09688
    A8        2.09771  -0.00206   0.00000  -0.00825  -0.00825   2.08945
    A9        2.09282   0.00102   0.00000   0.00403   0.00403   2.09685
   A10        2.09587   0.00005   0.00000   0.00146   0.00146   2.09732
   A11        2.09266   0.00189   0.00000   0.00885   0.00885   2.10151
   A12        2.09466  -0.00194   0.00000  -0.01031  -0.01031   2.08435
   A13        2.09479   0.00264   0.00000   0.01306   0.01306   2.10785
   A14        2.09401  -0.00314   0.00000  -0.01351  -0.01351   2.08050
   A15        2.09439   0.00051   0.00000   0.00045   0.00045   2.09484
   A16        2.09541   0.00453   0.00000   0.01750   0.01750   2.11291
   A17        2.09391  -0.00227   0.00000  -0.00878  -0.00878   2.08513
   A18        2.09386  -0.00226   0.00000  -0.00872  -0.00872   2.08514
    D1        0.00000   0.00000   0.00000   0.00000   0.00000   0.00000
    D2        3.14159   0.00000   0.00000   0.00000   0.00000   3.14159
    D3        3.14159   0.00000   0.00000   0.00000   0.00000   3.14159
    D4        0.00000   0.00000   0.00000   0.00000   0.00000   0.00000
    D5        3.14159   0.00000   0.00000   0.00000   0.00000   3.14159
    D6        0.00000   0.00000   0.00000   0.00000   0.00000   0.00000
    D7        0.00000   0.00000   0.00000   0.00000   0.00000   0.00000
    D8        3.14159   0.00000   0.00000   0.00000   0.00000   3.14159
    D9        3.14159   0.00000   0.00000   0.00000   0.00000   3.14159
   D10        0.00000   0.00000   0.00000   0.00000   0.00000   0.00000
   D11        0.00000   0.00000   0.00000   0.00000   0.00000   0.00000
   D12        3.14159   0.00000   0.00000   0.00000   0.00000   3.14159
   D13        3.14159   0.00000   0.00000   0.00000   0.00000   3.14159
   D14        0.00000   0.00000   0.00000   0.00000   0.00000   0.00000
   D15        0.00000   0.00000   0.00000   0.00000   0.00000   0.00000
   D16        3.14159   0.00000   0.00000   0.00000   0.00000   3.14159
   D17        3.14159   0.00000   0.00000   0.00000   0.00000   3.14159
   D18        0.00000   0.00000   0.00000   0.00000   0.00000   0.00000
   D19        0.00000   0.00000   0.00000   0.00000   0.00000   0.00000
   D20        3.14159   0.00000   0.00000   0.00000   0.00000   3.14159
   D21        0.00000   0.00000   0.00000   0.00000   0.00000   0.00000
   D22        3.14159   0.00000   0.00000   0.00000   0.00000   3.14159
   D23        3.14159   0.00000   0.00000   0.00000   0.00000   3.14159
   D24        0.00000   0.00000   0.00000   0.00000   0.00000   0.00000
         Item               Value     Threshold  Converged?
 Maximum Force            0.021391     0.000015     NO 
 RMS     Force            0.008493     0.000010     NO 
 Maximum Displacement     0.089373     0.000060     NO 
 RMS     Displacement     0.031180     0.000040     NO 
 Predicted change in Energy=-4.633995D-03
 GradGradGradGradGradGradGradGradGradGradGradGradGradGradGradGradGradGrad

                          Input orientation:                          
 ---------------------------------------------------------------------
 Center     Atomic     Atomic              Coordinates (Angstroms)
 Number     Number      Type              X           Y           Z
 ---------------------------------------------------------------------
    1          6             0       -0.017546   -0.034636    0.000000
    2          1             0       -0.573050   -0.977406    0.000000
    3          6             0        1.391079   -0.028126    0.000000
    4          1             0        1.932931   -0.978753    0.000000
    5          6             0        2.098819    1.190798    0.000000
    6          1             0        3.193494    1.190832    0.000000
    7          6             0        1.391038    2.409699    0.000000
    8          1             0        1.933010    3.360273    0.000000
    9          6             0       -0.017573    2.416215    0.000000
   10          1             0       -0.573049    3.359002    0.000000
   11          6             0       -0.710013    1.190770    0.000000
   12         17             0       -2.457461    1.190733    0.000000
 ---------------------------------------------------------------------
                    Distance matrix (angstroms):
                    1          2          3          4          5
     1  C    0.000000
     2  H    1.094257   0.000000
     3  C    1.408640   2.181498   0.000000
     4  H    2.166961   2.505981   1.094209   0.000000
     5  C    2.445545   3.440929   1.409494   2.175884   0.000000
     6  H    3.436939   4.346045   2.175904   2.509207   1.094675
     7  C    2.821149   3.915370   2.437826   3.431509   1.409494
     8  H    3.915364   5.009570   3.431463   4.339026   2.175801
     9  C    2.450851   3.438781   2.821188   3.915389   2.445560
    10  H    3.438802   4.336407   3.915410   5.009596   3.440928
    11  C    1.407526   2.172497   2.429053   3.419354   2.808832
    12  Cl   2.730331   2.872600   4.036939   4.897163   4.556280
                    6          7          8          9         10
     6  H    0.000000
     7  C    2.175887   0.000000
     8  H    2.509042   1.094223   0.000000
     9  C    3.436934   1.408626   2.167030   0.000000
    10  H    4.346010   2.181470   2.506059   1.094258   0.000000
    11  C    3.903507   2.429034   3.419403   1.407547   2.172553
    12  Cl   5.650955   4.036932   4.897258   2.730359   2.872699
                   11         12
    11  C    0.000000
    12  Cl   1.747447   0.000000
 Stoichiometry    C6H5Cl
 Framework group  CS[SG(C6H5Cl)]
 Deg. of freedom    21
 Full point group                 CS
 Largest Abelian subgroup         CS      NOp   2
 Largest concise Abelian subgroup C1      NOp   1
                         Standard orientation:                         
 ---------------------------------------------------------------------
 Center     Atomic     Atomic              Coordinates (Angstroms)
 Number     Number      Type              X           Y           Z
 ---------------------------------------------------------------------
    1          6             0       -1.225407   -0.172945    0.000000
    2          1             0       -2.168176    0.382560    0.000000
    3          6             0       -1.218901   -1.581571    0.000000
    4          1             0       -2.169529   -2.123420    0.000000
    5          6             0        0.000022   -2.289314    0.000000
    6          1             0        0.000053   -3.383988    0.000000
    7          6             0        1.218925   -1.581535    0.000000
    8          1             0        2.169497   -2.123509    0.000000
    9          6             0        1.225443   -0.172924    0.000000
   10          1             0        2.168231    0.382550    0.000000
   11          6             0        0.000000    0.519519    0.000000
   12         17             0       -0.000033    2.266966    0.000000
 ---------------------------------------------------------------------
 Rotational constants (GHZ):      5.5743822      1.5464976      1.2106325
 Standard basis: Aug-CC-pVDZ (5D, 7F)
 There are   150 symmetry adapted basis functions of A'  symmetry.
 There are    60 symmetry adapted basis functions of A"  symmetry.
 Integral buffers will be    131072 words long.
 Raffenetti 1 integral format.
 Two-electron integral symmetry is turned on.
   210 basis functions,   396 primitive gaussians,   224 cartesian basis functions
    29 alpha electrons       29 beta electrons
       nuclear repulsion energy       312.7873941244 Hartrees.
 NAtoms=   12 NActive=   12 NUniq=   12 SFac= 7.50D-01 NAtFMM=   80 NAOKFM=F Big=F
 One-electron integrals computed using PRISM.
 NBasis=   210 RedAO= T  NBF=   150    60
 NBsUse=   210 1.00D-06 NBFU=   150    60
 Initial guess read from the read-write file:
 Initial guess orbital symmetries:
       Occupied  (A') (A') (A') (A') (A') (A') (A') (A') (A') (A')
                 (A") (A') (A') (A') (A') (A') (A') (A') (A') (A')
                 (A') (A') (A") (A') (A') (A") (A') (A") (A")
       Virtual   (A') (A') (A') (A') (A') (A") (A") (A') (A") (A')
                 (A') (A") (A') (A') (A") (A') (A') (A') (A') (A')
                 (A") (A') (A') (A") (A") (A") (A') (A') (A') (A')
                 (A') (A') (A') (A') (A') (A') (A") (A") (A') (A')
                 (A') (A') (A') (A') (A") (A') (A') (A') (A") (A")
                 (A') (A") (A') (A") (A') (A') (A') (A') (A') (A")
                 (A") (A') (A") (A') (A') (A') (A') (A') (A") (A')
                 (A') (A') (A') (A") (A') (A") (A') (A") (A') (A')
                 (A") (A') (A') (A') (A') (A') (A") (A") (A") (A")
                 (A") (A") (A') (A') (A') (A") (A') (A') (A") (A')
                 (A") (A') (A') (A') (A") (A") (A') (A') (A") (A")
                 (A') (A') (A') (A") (A') (A") (A') (A') (A') (A')
                 (A') (A") (A') (A') (A') (A') (A') (A') (A") (A")
                 (A") (A") (A') (A') (A') (A') (A") (A') (A") (A')
                 (A') (A') (A') (A") (A') (A') (A") (A") (A') (A')
                 (A") (A") (A') (A') (A') (A') (A") (A') (A') (A")
                 (A') (A') (A') (A") (A") (A') (A') (A') (A') (A')
                 (A') (A') (A') (A') (A') (A') (A') (A') (A') (A')
                 (A')
 Harris functional with IExCor=  205 diagonalized for initial guess.
 ExpMin= 2.97D-02 ExpMax= 1.28D+05 ExpMxC= 1.24D+03 IAcc=3 IRadAn=         5 AccDes= 0.00D+00
 HarFok:  IExCor= 205 AccDes= 0.00D+00 IRadAn=         5 IDoV=1
 ScaDFX=  1.000000  1.000000  1.000000  1.000000
 Requested convergence on RMS density matrix=1.00D-08 within 128 cycles.
 Requested convergence on MAX density matrix=1.00D-06.
 Requested convergence on             energy=1.00D-06.
 No special actions if energy rises.
 SCF Done:  E(RHF) =  -689.647375762     A.U. after   13 cycles
             Convg  =    0.2720D-08             -V/T =  2.0007
             S**2   =   0.0000
 ExpMin= 2.97D-02 ExpMax= 1.28D+05 ExpMxC= 1.24D+03 IAcc=3 IRadAn=         5 AccDes= 0.00D+00
 HarFok:  IExCor= 205 AccDes= 0.00D+00 IRadAn=         5 IDoV=1
 ScaDFX=  1.000000  1.000000  1.000000  1.000000
 Range of M.O.s used for correlation:    12   210
 NBasis=   210 NAE=    29 NBE=    29 NFC=    11 NFV=     0
 NROrb=    199 NOA=    18 NOB=    18 NVA=   181 NVB=   181

 **** Warning!!: The largest alpha MO coefficient is  0.14146510D+03

 Fully direct method using O(ONN) memory.
 JobTyp=1 Pass  1:  I=  12 to  21 NPSUse=  2 ParTrn=T ParDer=T DoDerP=T.
 JobTyp=1 Pass  2:  I=  22 to  29 NPSUse=  2 ParTrn=T ParDer=T DoDerP=T.
 Spin components of T(2) and E(2):
     alpha-alpha T2 =       0.5362230557D-01 E2=     -0.1288480838D+00
     alpha-beta  T2 =       0.2715563210D+00 E2=     -0.7024891390D+00
     beta-beta   T2 =       0.5362230557D-01 E2=     -0.1288480838D+00
 ANorm=    0.1174223544D+01
 E2 =    -0.9601853067D+00 EUMP2 =    -0.69060756106849D+03
 DoAtom=TTTTTTTTTTTT
          Differentiating once with respect to electric field.
                with respect to dipole field.
          Differentiating once with respect to nuclear coordinates.
          There are   1 degrees of freedom in the 1st order CPHF.
 Petite list used in FoFDir.
 MinBra= 0 MaxBra= 2 Meth= 1.
 IRaf=       0 NMat=   1 IRICut=       1 DoRegI=T DoRafI=F ISym2E= 1 JSym2E=1.
     1 vectors were produced by pass  0.
 AX will form   1 AO Fock derivatives at one time.
     1 vectors were produced by pass  1.
     1 vectors were produced by pass  2.
     1 vectors were produced by pass  3.
     1 vectors were produced by pass  4.
     1 vectors were produced by pass  5.
     1 vectors were produced by pass  6.
     1 vectors were produced by pass  7.
     1 vectors were produced by pass  8.
     1 vectors were produced by pass  9.
     1 vectors were produced by pass 10.
     1 vectors were produced by pass 11.
     1 vectors were produced by pass 12.
     1 vectors were produced by pass 13.
 Inv2:  IOpt= 1 Iter= 1 AM= 8.59D-16 Conv= 1.00D-12.
 Inverted reduced A of dimension   14 with in-core refinement.
 End of Minotr Frequency-dependent properties file   721 does not exist.
 ***** Axes restored to original set *****
 -------------------------------------------------------------------
 Center     Atomic                   Forces (Hartrees/Bohr)
 Number     Number              X              Y              Z
 -------------------------------------------------------------------
    1          6          -0.000366794   -0.000790251    0.000000000
    2          1           0.000049714    0.000997625    0.000000000
    3          6          -0.000684980    0.002515977    0.000000000
    4          1          -0.000214857    0.000170028    0.000000000
    5          6          -0.000675310   -0.000006405    0.000000000
    6          1          -0.000818944   -0.000001265    0.000000000
    7          6          -0.000657187   -0.002510820    0.000000000
    8          1          -0.000231686   -0.000170660    0.000000000
    9          6          -0.000375569    0.000780661    0.000000000
   10          1           0.000045448   -0.001000918    0.000000000
   11          6           0.006146001    0.000014810    0.000000000
   12         17          -0.002215836    0.000001219    0.000000000
 -------------------------------------------------------------------
 Cartesian Forces:  Max     0.006146001 RMS     0.001301865

 GradGradGradGradGradGradGradGradGradGradGradGradGradGradGradGradGradGrad
 Berny optimization.
 Internal  Forces:  Max     0.002215836 RMS     0.000799102
 Search for a local minimum.
 Step number   2 out of a maximum of 100
 All quantities printed in internal units (Hartrees-Bohrs-Radians)
 Update second derivatives using D2CorX and points  1  2
 Trust test= 9.14D-01 RLast= 1.48D-01 DXMaxT set to 4.24D-01
     Eigenvalues ---    0.02254   0.02255   0.02257   0.02258   0.02261
     Eigenvalues ---    0.02262   0.02263   0.02267   0.02270   0.15943
     Eigenvalues ---    0.16000   0.16000   0.16000   0.16003   0.21867
     Eigenvalues ---    0.22000   0.23167   0.25000   0.31937   0.36844
     Eigenvalues ---    0.36986   0.37037   0.37114   0.37743   0.43296
     Eigenvalues ---    0.43534   0.47757   0.47830   0.47933   0.52363
     Eigenvalues --- 1000.000001000.000001000.000001000.000001000.00000
     Eigenvalues --- 1000.000001000.000001000.000001000.000001000.00000
     Eigenvalues --- 1000.000001000.000001000.000001000.000001000.00000
     Eigenvalues --- 1000.000001000.000001000.000001000.000001000.00000
     Eigenvalues --- 1000.000001000.000001000.000001000.00000
 RFO step:  Lambda=-6.95238603D-05.
 Quartic linear search produced a step of -0.04554.
 Iteration  1 RMS(Cart)=  0.00225720 RMS(Int)=  0.00000375
 Iteration  2 RMS(Cart)=  0.00000516 RMS(Int)=  0.00000064
 Iteration  3 RMS(Cart)=  0.00000000 RMS(Int)=  0.00000064
 Variable       Old X    -DE/DX   Delta X   Delta X   Delta X     New X
                                 (Linear)    (Quad)   (Total)
    R1        2.06785  -0.00088  -0.00199  -0.00005  -0.00204   2.06581
    R2        2.66194  -0.00164  -0.00179  -0.00126  -0.00305   2.65889
    R3        2.65984  -0.00199  -0.00178  -0.00193  -0.00370   2.65614
    R4        2.06776  -0.00025  -0.00193   0.00150  -0.00043   2.06733
    R5        2.66356  -0.00186  -0.00200  -0.00148  -0.00348   2.66008
    R6        2.06864  -0.00082  -0.00183  -0.00008  -0.00191   2.06673
    R7        2.66356  -0.00186  -0.00199  -0.00148  -0.00347   2.66009
    R8        2.06778  -0.00026  -0.00196   0.00152  -0.00044   2.06734
    R9        2.66192  -0.00163  -0.00179  -0.00124  -0.00304   2.65888
   R10        2.06785  -0.00089  -0.00203   0.00000  -0.00203   2.06581
   R11        2.65988  -0.00201  -0.00178  -0.00195  -0.00373   2.65615
   R12        3.30220   0.00222  -0.00149   0.00817   0.00668   3.30887
    A1        2.10788   0.00097  -0.00060   0.00553   0.00493   2.11281
    A2        2.09478   0.00001  -0.00002  -0.00079  -0.00082   2.09396
    A3        2.08053  -0.00098   0.00062  -0.00474  -0.00411   2.07642
    A4        2.08424  -0.00029   0.00047  -0.00194  -0.00147   2.08277
    A5        2.10147   0.00036  -0.00042   0.00206   0.00164   2.10311
    A6        2.09748  -0.00007  -0.00005  -0.00012  -0.00017   2.09730
    A7        2.09688   0.00005  -0.00019   0.00043   0.00024   2.09712
    A8        2.08945  -0.00010   0.00038  -0.00087  -0.00050   2.08895
    A9        2.09685   0.00005  -0.00018   0.00044   0.00026   2.09711
   A10        2.09732  -0.00006  -0.00007  -0.00001  -0.00007   2.09725
   A11        2.10151   0.00036  -0.00040   0.00202   0.00162   2.10313
   A12        2.08435  -0.00030   0.00047  -0.00202  -0.00155   2.08281
   A13        2.10785   0.00097  -0.00059   0.00555   0.00496   2.11281
   A14        2.08050  -0.00098   0.00062  -0.00471  -0.00410   2.07640
   A15        2.09484   0.00000  -0.00002  -0.00084  -0.00086   2.09398
   A16        2.11291   0.00134  -0.00080   0.00624   0.00545   2.11836
   A17        2.08513  -0.00067   0.00040  -0.00312  -0.00272   2.08241
   A18        2.08514  -0.00067   0.00040  -0.00313  -0.00273   2.08241
    D1        0.00000   0.00000   0.00000   0.00000   0.00000   0.00000
    D2        3.14159   0.00000   0.00000   0.00000   0.00000   3.14159
    D3        3.14159   0.00000   0.00000   0.00000   0.00000   3.14159
    D4        0.00000   0.00000   0.00000   0.00000   0.00000   0.00000
    D5        3.14159   0.00000   0.00000   0.00000   0.00000   3.14159
    D6        0.00000   0.00000   0.00000   0.00000   0.00000   0.00000
    D7        0.00000   0.00000   0.00000   0.00000   0.00000   0.00000
    D8        3.14159   0.00000   0.00000   0.00000   0.00000   3.14159
    D9        3.14159   0.00000   0.00000   0.00000   0.00000   3.14159
   D10        0.00000   0.00000   0.00000   0.00000   0.00000   0.00000
   D11        0.00000   0.00000   0.00000   0.00000   0.00000   0.00000
   D12        3.14159   0.00000   0.00000   0.00000   0.00000   3.14159
   D13        3.14159   0.00000   0.00000   0.00000   0.00000   3.14159
   D14        0.00000   0.00000   0.00000   0.00000   0.00000   0.00000
   D15        0.00000   0.00000   0.00000   0.00000   0.00000   0.00000
   D16        3.14159   0.00000   0.00000   0.00000   0.00000   3.14159
   D17        3.14159   0.00000   0.00000   0.00000   0.00000   3.14159
   D18        0.00000   0.00000   0.00000   0.00000   0.00000   0.00000
   D19        0.00000   0.00000   0.00000   0.00000   0.00000   0.00000
   D20        3.14159   0.00000   0.00000   0.00000   0.00000   3.14159
   D21        0.00000   0.00000   0.00000   0.00000   0.00000   0.00000
   D22        3.14159   0.00000   0.00000   0.00000   0.00000   3.14159
   D23        3.14159   0.00000   0.00000   0.00000   0.00000   3.14159
   D24        0.00000   0.00000   0.00000   0.00000   0.00000   0.00000
         Item               Value     Threshold  Converged?
 Maximum Force            0.002216     0.000015     NO 
 RMS     Force            0.000799     0.000010     NO 
 Maximum Displacement     0.010179     0.000060     NO 
 RMS     Displacement     0.002259     0.000040     NO 
 Predicted change in Energy=-4.408182D-05
 GradGradGradGradGradGradGradGradGradGradGradGradGradGradGradGradGradGrad

                          Input orientation:                          
 ---------------------------------------------------------------------
 Center     Atomic     Atomic              Coordinates (Angstroms)
 Number     Number      Type              X           Y           Z
 ---------------------------------------------------------------------
    1          6             0       -0.016469   -0.034808    0.000000
    2          1             0       -0.574767   -0.974670    0.000000
    3          6             0        1.390530   -0.026362    0.000000
    4          1             0        1.932188   -0.976840    0.000000
    5          6             0        2.097661    1.190788    0.000000
    6          1             0        3.191327    1.190804    0.000000
    7          6             0        1.390508    2.407929    0.000000
    8          1             0        1.932204    3.358390    0.000000
    9          6             0       -0.016486    2.416378    0.000000
   10          1             0       -0.574782    3.356246    0.000000
   11          6             0       -0.704627    1.190778    0.000000
   12         17             0       -2.455607    1.190768    0.000000
 ---------------------------------------------------------------------
                    Distance matrix (angstroms):
                    1          2          3          4          5
     1  C    0.000000
     2  H    1.093178   0.000000
     3  C    1.407025   2.182127   0.000000
     4  H    2.164415   2.506955   1.093984   0.000000
     5  C    2.443692   3.439633   1.407653   2.173935   0.000000
     6  H    3.433960   4.344277   2.173560   2.506813   1.093666
     7  C    2.818963   3.912069   2.434292   3.427839   1.407657
     8  H    3.912943   5.006028   3.427821   4.335230   2.173908
     9  C    2.451185   3.436697   2.818984   3.912960   2.443704
    10  H    3.436707   4.330917   3.912096   5.006050   3.439646
    11  C    1.405568   2.169339   2.423038   3.413409   2.802288
    12  Cl   2.729730   2.868219   4.034126   4.894003   4.553268
                    6          7          8          9         10
     6  H    0.000000
     7  C    2.173555   0.000000
     8  H    2.506755   1.093988   0.000000
     9  C    3.433962   1.407019   2.164435   0.000000
    10  H    4.344274   2.182125   2.506988   1.093182   0.000000
    11  C    3.895954   2.423025   3.413418   1.405572   2.169357
    12  Cl   5.646934   4.034115   4.894024   2.729731   2.868240
                   11         12
    11  C    0.000000
    12  Cl   1.750980   0.000000
 Stoichiometry    C6H5Cl
 Framework group  CS[SG(C6H5Cl)]
 Deg. of freedom    21
 Full point group                 CS
 Largest Abelian subgroup         CS      NOp   2
 Largest concise Abelian subgroup C1      NOp   1
                         Standard orientation:                         
 ---------------------------------------------------------------------
 Center     Atomic     Atomic              Coordinates (Angstroms)
 Number     Number      Type              X           Y           Z
 ---------------------------------------------------------------------
    1          6             0       -1.225587   -0.173053    0.000000
    2          1             0       -2.165449    0.385247    0.000000
    3          6             0       -1.217145   -1.580052    0.000000
    4          1             0       -2.167624   -2.121708    0.000000
    5          6             0        0.000003   -2.287186    0.000000
    6          1             0        0.000017   -3.380852    0.000000
    7          6             0        1.217147   -1.580036    0.000000
    8          1             0        2.167606   -2.121734    0.000000
    9          6             0        1.225598   -0.173042    0.000000
   10          1             0        2.165468    0.385252    0.000000
   11          6             0        0.000000    0.515102    0.000000
   12         17             0       -0.000006    2.266082    0.000000
 ---------------------------------------------------------------------
 Rotational constants (GHZ):      5.5826350      1.5486562      1.2123446
 Standard basis: Aug-CC-pVDZ (5D, 7F)
 There are   150 symmetry adapted basis functions of A'  symmetry.
 There are    60 symmetry adapted basis functions of A"  symmetry.
 Integral buffers will be    131072 words long.
 Raffenetti 1 integral format.
 Two-electron integral symmetry is turned on.
   210 basis functions,   396 primitive gaussians,   224 cartesian basis functions
    29 alpha electrons       29 beta electrons
       nuclear repulsion energy       313.0007554006 Hartrees.
 NAtoms=   12 NActive=   12 NUniq=   12 SFac= 7.50D-01 NAtFMM=   80 NAOKFM=F Big=F
 One-electron integrals computed using PRISM.
 NBasis=   210 RedAO= T  NBF=   150    60
 NBsUse=   210 1.00D-06 NBFU=   150    60
 Initial guess read from the read-write file:
 Initial guess orbital symmetries:
       Occupied  (A') (A') (A') (A') (A') (A') (A') (A') (A') (A')
                 (A") (A') (A') (A') (A') (A') (A') (A') (A') (A')
                 (A') (A') (A") (A') (A') (A") (A') (A") (A")
       Virtual   (A') (A') (A') (A') (A') (A") (A") (A') (A") (A')
                 (A') (A") (A') (A') (A") (A') (A') (A') (A') (A')
                 (A") (A') (A") (A') (A") (A") (A') (A') (A') (A')
                 (A') (A') (A') (A') (A') (A") (A') (A') (A") (A')
                 (A') (A') (A') (A') (A') (A") (A') (A') (A") (A")
                 (A') (A") (A') (A") (A') (A') (A') (A') (A') (A")
                 (A") (A') (A") (A') (A') (A') (A') (A') (A") (A')
                 (A') (A') (A') (A") (A") (A') (A') (A") (A') (A')
                 (A') (A") (A') (A') (A') (A") (A') (A") (A") (A")
                 (A") (A') (A") (A') (A') (A") (A') (A') (A") (A')
                 (A") (A') (A') (A') (A") (A") (A') (A') (A") (A")
                 (A') (A') (A") (A") (A') (A') (A') (A') (A') (A')
                 (A") (A') (A') (A') (A') (A') (A') (A') (A") (A")
                 (A") (A") (A') (A') (A') (A') (A") (A') (A") (A')
                 (A') (A') (A') (A") (A') (A') (A') (A") (A") (A')
                 (A") (A') (A") (A') (A') (A') (A") (A') (A') (A")
                 (A') (A') (A') (A") (A") (A') (A') (A') (A') (A')
                 (A') (A') (A') (A') (A') (A') (A') (A') (A') (A')
                 (A')
 Requested convergence on RMS density matrix=1.00D-08 within 128 cycles.
 Requested convergence on MAX density matrix=1.00D-06.
 Requested convergence on             energy=1.00D-06.
 No special actions if energy rises.
 SCF Done:  E(RHF) =  -689.647880068     A.U. after   11 cycles
             Convg  =    0.7889D-08             -V/T =  2.0007
             S**2   =   0.0000
 ExpMin= 2.97D-02 ExpMax= 1.28D+05 ExpMxC= 1.24D+03 IAcc=3 IRadAn=         5 AccDes= 0.00D+00
 HarFok:  IExCor= 205 AccDes= 0.00D+00 IRadAn=         5 IDoV=1
 ScaDFX=  1.000000  1.000000  1.000000  1.000000
 Range of M.O.s used for correlation:    12   210
 NBasis=   210 NAE=    29 NBE=    29 NFC=    11 NFV=     0
 NROrb=    199 NOA=    18 NOB=    18 NVA=   181 NVB=   181

 **** Warning!!: The largest alpha MO coefficient is  0.14486875D+03

 Fully direct method using O(ONN) memory.
 JobTyp=1 Pass  1:  I=  12 to  21 NPSUse=  2 ParTrn=T ParDer=T DoDerP=T.
 JobTyp=1 Pass  2:  I=  22 to  29 NPSUse=  2 ParTrn=T ParDer=T DoDerP=T.
 Spin components of T(2) and E(2):
     alpha-alpha T2 =       0.5355007686D-01 E2=     -0.1288044197D+00
     alpha-beta  T2 =       0.2711448501D+00 E2=     -0.7021280038D+00
     beta-beta   T2 =       0.5355007686D-01 E2=     -0.1288044197D+00
 ANorm=    0.1173986799D+01
 E2 =    -0.9597368431D+00 EUMP2 =    -0.69060761691090D+03
 DoAtom=TTTTTTTTTTTT
          Differentiating once with respect to electric field.
                with respect to dipole field.
          Differentiating once with respect to nuclear coordinates.
          There are   1 degrees of freedom in the 1st order CPHF.
 Petite list used in FoFDir.
 MinBra= 0 MaxBra= 2 Meth= 1.
 IRaf=       0 NMat=   1 IRICut=       1 DoRegI=T DoRafI=F ISym2E= 1 JSym2E=1.
     1 vectors were produced by pass  0.
 AX will form   1 AO Fock derivatives at one time.
     1 vectors were produced by pass  1.
     1 vectors were produced by pass  2.
     1 vectors were produced by pass  3.
     1 vectors were produced by pass  4.
     1 vectors were produced by pass  5.
     1 vectors were produced by pass  6.
     1 vectors were produced by pass  7.
     1 vectors were produced by pass  8.
     1 vectors were produced by pass  9.
     1 vectors were produced by pass 10.
     1 vectors were produced by pass 11.
     1 vectors were produced by pass 12.
     1 vectors were produced by pass 13.
 Inv2:  IOpt= 1 Iter= 1 AM= 7.11D-16 Conv= 1.00D-12.
 Inverted reduced A of dimension   14 with in-core refinement.
 End of Minotr Frequency-dependent properties file   721 does not exist.
 ***** Axes restored to original set *****
 -------------------------------------------------------------------
 Center     Atomic                   Forces (Hartrees/Bohr)
 Number     Number              X              Y              Z
 -------------------------------------------------------------------
    1          6          -0.000472980   -0.000558736    0.000000000
    2          1          -0.000003446    0.000281892    0.000000000
    3          6           0.000064850    0.000417436    0.000000000
    4          1          -0.000007768    0.000030310    0.000000000
    5          6          -0.000037381    0.000000410    0.000000000
    6          1          -0.000158465   -0.000000397    0.000000000
    7          6           0.000076540   -0.000416749    0.000000000
    8          1          -0.000013035   -0.000030177    0.000000000
    9          6          -0.000475891    0.000558025    0.000000000
   10          1          -0.000002800   -0.000285227    0.000000000
   11          6           0.002151237    0.000003354    0.000000000
   12         17          -0.001120861   -0.000000141    0.000000000
 -------------------------------------------------------------------
 Cartesian Forces:  Max     0.002151237 RMS     0.000456597

 GradGradGradGradGradGradGradGradGradGradGradGradGradGradGradGradGradGrad
 Berny optimization.
 Internal  Forces:  Max     0.001120861 RMS     0.000216172
 Search for a local minimum.
 Step number   3 out of a maximum of 100
 All quantities printed in internal units (Hartrees-Bohrs-Radians)
 Update second derivatives using D2CorX and points  1  2  3
 Trust test= 1.27D+00 RLast= 1.63D-02 DXMaxT set to 4.24D-01
     Eigenvalues ---    0.02254   0.02255   0.02257   0.02258   0.02261
     Eigenvalues ---    0.02262   0.02263   0.02267   0.02270   0.14778
     Eigenvalues ---    0.16000   0.16000   0.16000   0.16027   0.18997
     Eigenvalues ---    0.22000   0.22227   0.25000   0.29541   0.36840
     Eigenvalues ---    0.36987   0.37034   0.37106   0.37165   0.43296
     Eigenvalues ---    0.43490   0.47670   0.47830   0.47933   0.53769
     Eigenvalues --- 1000.000001000.000001000.000001000.000001000.00000
     Eigenvalues --- 1000.000001000.000001000.000001000.000001000.00000
     Eigenvalues --- 1000.000001000.000001000.000001000.000001000.00000
     Eigenvalues --- 1000.000001000.000001000.000001000.000001000.00000
     Eigenvalues --- 1000.000001000.000001000.000001000.00000
 RFO step:  Lambda=-4.98989181D-06.
 Quartic linear search produced a step of  0.34831.
 Iteration  1 RMS(Cart)=  0.00094485 RMS(Int)=  0.00000114
 Iteration  2 RMS(Cart)=  0.00000147 RMS(Int)=  0.00000046
 Iteration  3 RMS(Cart)=  0.00000000 RMS(Int)=  0.00000046
 Variable       Old X    -DE/DX   Delta X   Delta X   Delta X     New X
                                 (Linear)    (Quad)   (Total)
    R1        2.06581  -0.00024  -0.00071  -0.00016  -0.00087   2.06494
    R2        2.65889  -0.00004  -0.00106   0.00092  -0.00014   2.65875
    R3        2.65614  -0.00026  -0.00129   0.00050  -0.00079   2.65535
    R4        2.06733  -0.00003  -0.00015   0.00013  -0.00002   2.06731
    R5        2.66008  -0.00019  -0.00121   0.00062  -0.00059   2.65949
    R6        2.06673  -0.00016  -0.00066   0.00009  -0.00057   2.06616
    R7        2.66009  -0.00019  -0.00121   0.00061  -0.00060   2.65949
    R8        2.06734  -0.00003  -0.00015   0.00013  -0.00003   2.06731
    R9        2.65888  -0.00003  -0.00106   0.00093  -0.00013   2.65875
   R10        2.06581  -0.00024  -0.00071  -0.00017  -0.00087   2.06494
   R11        2.65615  -0.00026  -0.00130   0.00050  -0.00080   2.65535
   R12        3.30887   0.00112   0.00233   0.00278   0.00510   3.31398
    A1        2.11281   0.00033   0.00172   0.00088   0.00260   2.11541
    A2        2.09396   0.00003  -0.00029   0.00001  -0.00027   2.09368
    A3        2.07642  -0.00036  -0.00143  -0.00089  -0.00232   2.07409
    A4        2.08277  -0.00002  -0.00051   0.00031  -0.00020   2.08257
    A5        2.10311   0.00006   0.00057  -0.00009   0.00048   2.10359
    A6        2.09730  -0.00004  -0.00006  -0.00022  -0.00028   2.09703
    A7        2.09712  -0.00003   0.00008  -0.00027  -0.00019   2.09694
    A8        2.08895   0.00007  -0.00017   0.00054   0.00037   2.08932
    A9        2.09711  -0.00003   0.00009  -0.00027  -0.00018   2.09693
   A10        2.09725  -0.00003  -0.00003  -0.00020  -0.00022   2.09703
   A11        2.10313   0.00005   0.00056  -0.00010   0.00046   2.10359
   A12        2.08281  -0.00002  -0.00054   0.00030  -0.00024   2.08257
   A13        2.11281   0.00033   0.00173   0.00087   0.00260   2.11541
   A14        2.07640  -0.00035  -0.00143  -0.00088  -0.00231   2.07410
   A15        2.09398   0.00002  -0.00030   0.00001  -0.00029   2.09368
   A16        2.11836   0.00053   0.00190   0.00142   0.00332   2.12168
   A17        2.08241  -0.00027  -0.00095  -0.00072  -0.00166   2.08075
   A18        2.08241  -0.00027  -0.00095  -0.00071  -0.00166   2.08075
    D1        0.00000   0.00000   0.00000   0.00000   0.00000   0.00000
    D2        3.14159   0.00000   0.00000   0.00000   0.00000   3.14159
    D3        3.14159   0.00000   0.00000   0.00000   0.00000   3.14159
    D4        0.00000   0.00000   0.00000   0.00000   0.00000   0.00000
    D5        3.14159   0.00000   0.00000   0.00000   0.00000   3.14159
    D6        0.00000   0.00000   0.00000   0.00000   0.00000   0.00000
    D7        0.00000   0.00000   0.00000   0.00000   0.00000   0.00000
    D8        3.14159   0.00000   0.00000   0.00000   0.00000   3.14159
    D9        3.14159   0.00000   0.00000   0.00000   0.00000   3.14159
   D10        0.00000   0.00000   0.00000   0.00000   0.00000   0.00000
   D11        0.00000   0.00000   0.00000   0.00000   0.00000   0.00000
   D12        3.14159   0.00000   0.00000   0.00000   0.00000   3.14159
   D13        3.14159   0.00000   0.00000   0.00000   0.00000   3.14159
   D14        0.00000   0.00000   0.00000   0.00000   0.00000   0.00000
   D15        0.00000   0.00000   0.00000   0.00000   0.00000   0.00000
   D16        3.14159   0.00000   0.00000   0.00000   0.00000   3.14159
   D17        3.14159   0.00000   0.00000   0.00000   0.00000   3.14159
   D18        0.00000   0.00000   0.00000   0.00000   0.00000   0.00000
   D19        0.00000   0.00000   0.00000   0.00000   0.00000   0.00000
   D20        3.14159   0.00000   0.00000   0.00000   0.00000   3.14159
   D21        0.00000   0.00000   0.00000   0.00000   0.00000   0.00000
   D22        3.14159   0.00000   0.00000   0.00000   0.00000   3.14159
   D23        3.14159   0.00000   0.00000   0.00000   0.00000   3.14159
   D24        0.00000   0.00000   0.00000   0.00000   0.00000   0.00000
         Item               Value     Threshold  Converged?
 Maximum Force            0.001121     0.000015     NO 
 RMS     Force            0.000216     0.000010     NO 
 Maximum Displacement     0.004574     0.000060     NO 
 RMS     Displacement     0.000945     0.000040     NO 
 Predicted change in Energy=-6.517982D-06
 GradGradGradGradGradGradGradGradGradGradGradGradGradGradGradGradGradGrad

                          Input orientation:                          
 ---------------------------------------------------------------------
 Center     Atomic     Atomic              Coordinates (Angstroms)
 Number     Number      Type              X           Y           Z
 ---------------------------------------------------------------------
    1          6             0       -0.016298   -0.035586    0.000000
    2          1             0       -0.576184   -0.973969    0.000000
    3          6             0        1.390621   -0.026219    0.000000
    4          1             0        1.932703   -0.976443    0.000000
    5          6             0        2.097380    1.190786    0.000000
    6          1             0        3.190743    1.190791    0.000000
    7          6             0        1.390616    2.407789    0.000000
    8          1             0        1.932694    3.358015    0.000000
    9          6             0       -0.016303    2.417149    0.000000
   10          1             0       -0.576196    3.355529    0.000000
   11          6             0       -0.702207    1.190780    0.000000
   12         17             0       -2.455888    1.190778    0.000000
 ---------------------------------------------------------------------
                    Distance matrix (angstroms):
                    1          2          3          4          5
     1  C    0.000000
     2  H    1.092719   0.000000
     3  C    1.406951   2.183244   0.000000
     4  H    2.164213   2.508889   1.093974   0.000000
     5  C    2.443691   3.440074   1.407341   2.173476   0.000000
     6  H    3.433528   4.344643   2.172913   2.505906   1.093363
     7  C    2.819483   3.912107   2.434007   3.427372   1.407342
     8  H    3.913450   5.006051   3.427372   4.334457   2.173477
     9  C    2.452735   3.437026   2.819483   3.913450   2.443691
    10  H    3.437025   4.329498   3.912107   5.006051   3.440075
    11  C    1.405149   2.168414   2.420953   3.411687   2.799587
    12  Cl   2.730488   2.866952   4.034441   4.894546   4.553268
                    6          7          8          9         10
     6  H    0.000000
     7  C    2.172911   0.000000
     8  H    2.505902   1.093974   0.000000
     9  C    3.433526   1.406950   2.164213   0.000000
    10  H    4.344642   2.183245   2.508890   1.092719   0.000000
    11  C    3.892949   2.420953   3.411686   1.405149   2.168413
    12  Cl   5.646631   4.034440   4.894544   2.730487   2.866948
                   11         12
    11  C    0.000000
    12  Cl   1.753682   0.000000
 Stoichiometry    C6H5Cl
 Framework group  CS[SG(C6H5Cl)]
 Deg. of freedom    21
 Full point group                 CS
 Largest Abelian subgroup         CS      NOp   2
 Largest concise Abelian subgroup C1      NOp   1
                         Standard orientation:                         
 ---------------------------------------------------------------------
 Center     Atomic     Atomic              Coordinates (Angstroms)
 Number     Number      Type              X           Y           Z
 ---------------------------------------------------------------------
    1          6             0        1.226368   -0.173069    0.000000
    2          1             0        2.164749    0.386820    0.000000
    3          6             0        1.217005   -1.579988    0.000000
    4          1             0        2.167231   -2.122067    0.000000
    5          6             0        0.000003   -2.286750    0.000000
    6          1             0        0.000000   -3.380113    0.000000
    7          6             0       -1.217002   -1.579990    0.000000
    8          1             0       -2.167227   -2.122070    0.000000
    9          6             0       -1.226367   -0.173071    0.000000
   10          1             0       -2.164748    0.386819    0.000000
   11          6             0        0.000000    0.512836    0.000000
   12         17             0       -0.000003    2.266518    0.000000
 ---------------------------------------------------------------------
 Rotational constants (GHZ):      5.5809260      1.5485896      1.2122231
 Standard basis: Aug-CC-pVDZ (5D, 7F)
 There are   150 symmetry adapted basis functions of A'  symmetry.
 There are    60 symmetry adapted basis functions of A"  symmetry.
 Integral buffers will be    131072 words long.
 Raffenetti 1 integral format.
 Two-electron integral symmetry is turned on.
   210 basis functions,   396 primitive gaussians,   224 cartesian basis functions
    29 alpha electrons       29 beta electrons
       nuclear repulsion energy       312.9780040578 Hartrees.
 NAtoms=   12 NActive=   12 NUniq=   12 SFac= 7.50D-01 NAtFMM=   80 NAOKFM=F Big=F
 One-electron integrals computed using PRISM.
 NBasis=   210 RedAO= T  NBF=   150    60
 NBsUse=   210 1.00D-06 NBFU=   150    60
 Initial guess read from the read-write file:
 Initial guess orbital symmetries:
       Occupied  (A') (A') (A') (A') (A') (A') (A') (A') (A') (A')
                 (A") (A') (A') (A') (A') (A') (A') (A') (A') (A')
                 (A') (A') (A") (A') (A') (A") (A') (A") (A")
       Virtual   (A') (A') (A') (A') (A') (A") (A") (A') (A") (A')
                 (A') (A") (A') (A') (A") (A') (A') (A') (A') (A')
                 (A") (A') (A") (A') (A") (A") (A') (A') (A') (A')
                 (A') (A') (A') (A') (A') (A") (A') (A') (A") (A')
                 (A') (A') (A') (A') (A') (A") (A') (A') (A") (A")
                 (A') (A") (A') (A") (A') (A') (A') (A') (A') (A")
                 (A") (A') (A') (A") (A') (A') (A') (A') (A") (A')
                 (A') (A') (A') (A") (A") (A') (A') (A") (A') (A')
                 (A') (A") (A') (A') (A') (A") (A') (A") (A") (A")
                 (A") (A') (A") (A') (A') (A") (A') (A') (A") (A')
                 (A") (A') (A') (A') (A") (A") (A') (A') (A") (A")
                 (A') (A') (A") (A") (A') (A') (A') (A') (A') (A')
                 (A") (A') (A') (A') (A') (A') (A') (A') (A") (A")
                 (A") (A") (A') (A') (A') (A') (A") (A') (A") (A')
                 (A') (A') (A') (A") (A') (A') (A') (A") (A") (A')
                 (A") (A') (A") (A') (A') (A') (A") (A') (A') (A")
                 (A') (A') (A') (A") (A") (A') (A') (A') (A') (A')
                 (A') (A') (A') (A') (A') (A') (A') (A') (A') (A')
                 (A')
 Requested convergence on RMS density matrix=1.00D-08 within 128 cycles.
 Requested convergence on MAX density matrix=1.00D-06.
 Requested convergence on             energy=1.00D-06.
 No special actions if energy rises.
 SCF Done:  E(RHF) =  -689.647951882     A.U. after   16 cycles
             Convg  =    0.2970D-08             -V/T =  2.0007
             S**2   =   0.0000
 ExpMin= 2.97D-02 ExpMax= 1.28D+05 ExpMxC= 1.24D+03 IAcc=3 IRadAn=         5 AccDes= 0.00D+00
 HarFok:  IExCor= 205 AccDes= 0.00D+00 IRadAn=         5 IDoV=1
 ScaDFX=  1.000000  1.000000  1.000000  1.000000
 Range of M.O.s used for correlation:    12   210
 NBasis=   210 NAE=    29 NBE=    29 NFC=    11 NFV=     0
 NROrb=    199 NOA=    18 NOB=    18 NVA=   181 NVB=   181

 **** Warning!!: The largest alpha MO coefficient is  0.14560247D+03

 Fully direct method using O(ONN) memory.
 JobTyp=1 Pass  1:  I=  12 to  21 NPSUse=  2 ParTrn=T ParDer=T DoDerP=T.
 JobTyp=1 Pass  2:  I=  22 to  29 NPSUse=  2 ParTrn=T ParDer=T DoDerP=T.
 Spin components of T(2) and E(2):
     alpha-alpha T2 =       0.5354287783D-01 E2=     -0.1287937868D+00
     alpha-beta  T2 =       0.2711160593D+00 E2=     -0.7020844898D+00
     beta-beta   T2 =       0.5354287783D-01 E2=     -0.1287937868D+00
 ANorm=    0.1173968405D+01
 E2 =    -0.9596720634D+00 EUMP2 =    -0.69060762394543D+03
 DoAtom=TTTTTTTTTTTT
          Differentiating once with respect to electric field.
                with respect to dipole field.
          Differentiating once with respect to nuclear coordinates.
          There are   1 degrees of freedom in the 1st order CPHF.
 Petite list used in FoFDir.
 MinBra= 0 MaxBra= 2 Meth= 1.
 IRaf=       0 NMat=   1 IRICut=       1 DoRegI=T DoRafI=F ISym2E= 1 JSym2E=1.
     1 vectors were produced by pass  0.
 AX will form   1 AO Fock derivatives at one time.
     1 vectors were produced by pass  1.
     1 vectors were produced by pass  2.
     1 vectors were produced by pass  3.
     1 vectors were produced by pass  4.
     1 vectors were produced by pass  5.
     1 vectors were produced by pass  6.
     1 vectors were produced by pass  7.
     1 vectors were produced by pass  8.
     1 vectors were produced by pass  9.
     1 vectors were produced by pass 10.
     1 vectors were produced by pass 11.
     1 vectors were produced by pass 12.
     1 vectors were produced by pass 13.
 Inv2:  IOpt= 1 Iter= 1 AM= 3.60D-16 Conv= 1.00D-12.
 Inverted reduced A of dimension   14 with in-core refinement.
 End of Minotr Frequency-dependent properties file   721 does not exist.
 ***** Axes restored to original set *****
 -------------------------------------------------------------------
 Center     Atomic                   Forces (Hartrees/Bohr)
 Number     Number              X              Y              Z
 -------------------------------------------------------------------
    1          6          -0.000136134   -0.000015972    0.000000000
    2          1          -0.000006417   -0.000018910    0.000000000
[...]
     49  0.257275D-02  0.292871D-02 -0.171016D-02  0.796067D-02
     50  0.134438D-02 -0.189877D-02  0.289963D-02  0.332180D-02  0.812020D-02
     51  0.166940D-02 -0.370894D-03 -0.480437D-02  0.903716D-03 -0.352976D-02
     52  0.153936D-02  0.121079D-02 -0.355929D-02  0.255167D-02 -0.221841D-02
     53  0.456723D-03 -0.513673D-02 -0.253445D-03 -0.367592D-02  0.120737D-02
     54  0.326676D-03 -0.355504D-02  0.991639D-03 -0.202797D-02  0.251871D-02
               51            52            53            54
     51  0.717284D-02
     52  0.222205D-02  0.924399D-02
     53  0.279598D-02 -0.248712D-02  0.761690D-02
     54 -0.215482D-02  0.453482D-02  0.233380D-02  0.902344D-02
 Final forces over variables, Energy=-6.90607624D+02:
 -6.11327418D-08-1.12646101D-07-2.33511474D-06-1.58147595D-06
  2.02101118D-07 4.34663915D-07 2.27194375D-07-1.63161200D-06
 -1.76135261D-07-1.13664397D-07-2.38313923D-06-2.00420565D-06
 -1.98515188D-06 9.93660378D-07 9.91491506D-07 3.14892995D-06
 -1.93780310D-06-1.21112684D-06-8.00963409D-07 1.57119352D-06
 -7.70230112D-07-1.19524484D-06-1.96914557D-06 3.16439042D-06
 -2.09819485D-06 1.05466005D-06 1.04353481D-06 2.89603605D-07
 -1.49561534D-07-1.40042070D-07-8.17281879D-12 7.73241766D-11
 -1.58577331D-10-7.30803357D-11-1.74189696D-10-1.63331191D-10
 -2.57056782D-11-1.48471734D-11 2.73219135D-11 1.01431650D-10
  1.13503399D-10 1.87613136D-10 9.29834658D-11-3.12138707D-11
  1.67093188D-10 4.28958517D-11 1.66898338D-10-6.50023750D-11
  4.36874273D-11-1.88213285D-10 9.42259182D-11 8.33674137D-11
 -1.34713491D-10-1.45571995D-10

 GradGradGradGradGradGradGradGradGradGradGradGradGradGradGradGradGradGrad
 Berny optimization.
 Internal  Forces:  Max     0.000003164 RMS     0.000001118
 Search for a local minimum.
 Step number   1 out of a maximum of   2
 All quantities printed in internal units (Hartrees-Bohrs-Radians)
 Second derivative matrix not updated -- analytic derivatives used.
     Eigenvalues ---    0.01382   0.01622   0.01645   0.02114   0.02204
     Eigenvalues ---    0.02341   0.02607   0.02660   0.02925   0.10597
     Eigenvalues ---    0.10784   0.11018   0.11706   0.12010   0.16261
     Eigenvalues ---    0.17571   0.18633   0.19447   0.26885   0.34525
     Eigenvalues ---    0.36465   0.36543   0.36698   0.36798   0.36916
     Eigenvalues ---    0.40686   0.41055   0.46661   0.46755   0.50123
     Eigenvalues --- 1000.000001000.000001000.000001000.000001000.00000
     Eigenvalues --- 1000.000001000.000001000.000001000.000001000.00000
     Eigenvalues --- 1000.000001000.000001000.000001000.000001000.00000
     Eigenvalues --- 1000.000001000.000001000.000001000.000001000.00000
     Eigenvalues --- 1000.000001000.000001000.000001000.00000
 Angle between quadratic step and forces=  21.39 degrees.
 Linear search not attempted -- first point.
 Iteration  1 RMS(Cart)=  0.00000738 RMS(Int)=  0.00000000
 Iteration  2 RMS(Cart)=  0.00000000 RMS(Int)=  0.00000000
 Variable       Old X    -DE/DX   Delta X   Delta X   Delta X     New X
                                 (Linear)    (Quad)   (Total)
    R1        2.06498   0.00000   0.00000   0.00000   0.00000   2.06498
    R2        2.65900   0.00000   0.00000   0.00000   0.00000   2.65900
    R3        2.65533   0.00000   0.00000  -0.00001  -0.00001   2.65533
    R4        2.06730   0.00000   0.00000  -0.00001  -0.00001   2.06730
    R5        2.65965   0.00000   0.00000   0.00000   0.00000   2.65965
    R6        2.06629   0.00000   0.00000   0.00000   0.00000   2.06629
    R7        2.65965   0.00000   0.00000   0.00000   0.00000   2.65965
    R8        2.06730   0.00000   0.00000  -0.00001  -0.00001   2.06730
    R9        2.65900   0.00000   0.00000   0.00000   0.00000   2.65900
   R10        2.06498   0.00000   0.00000   0.00000   0.00000   2.06498
   R11        2.65533   0.00000   0.00000  -0.00001  -0.00001   2.65533
   R12        3.31477   0.00000   0.00000  -0.00001  -0.00001   3.31476
    A1        2.11554   0.00000   0.00000  -0.00002  -0.00002   2.11552
    A2        2.09380   0.00000   0.00000   0.00001   0.00001   2.09381
    A3        2.07385   0.00000   0.00000   0.00001   0.00001   2.07385
    A4        2.08292   0.00000   0.00000   0.00002   0.00002   2.08295
    A5        2.10339   0.00000   0.00000  -0.00001  -0.00001   2.10338
    A6        2.09688   0.00000   0.00000  -0.00001  -0.00001   2.09686
    A7        2.09675   0.00000   0.00000  -0.00001  -0.00001   2.09674
    A8        2.08969   0.00000   0.00000   0.00001   0.00001   2.08970
    A9        2.09675   0.00000   0.00000  -0.00001  -0.00001   2.09674
   A10        2.09688   0.00000   0.00000  -0.00001  -0.00001   2.09686
   A11        2.10339   0.00000   0.00000  -0.00001  -0.00001   2.10338
   A12        2.08292   0.00000   0.00000   0.00002   0.00002   2.08295
   A13        2.11554   0.00000   0.00000  -0.00002  -0.00002   2.11552
   A14        2.07385   0.00000   0.00000   0.00001   0.00001   2.07385
   A15        2.09380   0.00000   0.00000   0.00001   0.00001   2.09381
   A16        2.12221   0.00000   0.00000   0.00000   0.00000   2.12221
   A17        2.08049   0.00000   0.00000   0.00000   0.00000   2.08049
   A18        2.08049   0.00000   0.00000   0.00000   0.00000   2.08049
    D1        0.00000   0.00000   0.00000   0.00000   0.00000   0.00000
    D2        3.14159   0.00000   0.00000   0.00000   0.00000   3.14159
    D3        3.14159   0.00000   0.00000   0.00000   0.00000   3.14159
    D4        0.00000   0.00000   0.00000   0.00000   0.00000   0.00000
    D5        3.14159   0.00000   0.00000   0.00000   0.00000   3.14159
    D6        0.00000   0.00000   0.00000   0.00000   0.00000   0.00000
    D7        0.00000   0.00000   0.00000   0.00000   0.00000   0.00000
    D8        3.14159   0.00000   0.00000   0.00000   0.00000   3.14159
    D9        3.14159   0.00000   0.00000   0.00000   0.00000   3.14159
   D10        0.00000   0.00000   0.00000   0.00000   0.00000   0.00000
   D11        0.00000   0.00000   0.00000   0.00000   0.00000   0.00000
   D12        3.14159   0.00000   0.00000   0.00000   0.00000   3.14159
   D13        3.14159   0.00000   0.00000   0.00000   0.00000  -3.14159
   D14        0.00000   0.00000   0.00000   0.00000   0.00000   0.00000
   D15        0.00000   0.00000   0.00000   0.00000   0.00000   0.00000
   D16        3.14159   0.00000   0.00000   0.00000   0.00000   3.14159
   D17        3.14159   0.00000   0.00000   0.00000   0.00000   3.14159
   D18        0.00000   0.00000   0.00000   0.00000   0.00000   0.00000
   D19        0.00000   0.00000   0.00000   0.00000   0.00000   0.00000
   D20        3.14159   0.00000   0.00000   0.00000   0.00000   3.14159
   D21        0.00000   0.00000   0.00000   0.00000   0.00000   0.00000
   D22        3.14159   0.00000   0.00000   0.00000   0.00000   3.14159
   D23        3.14159   0.00000   0.00000   0.00000   0.00000   3.14159
   D24        0.00000   0.00000   0.00000   0.00000   0.00000   0.00000
         Item               Value     Threshold  Converged?
 Maximum Force            0.000003     0.000450     YES
 RMS     Force            0.000001     0.000300     YES
 Maximum Displacement     0.000024     0.001800     YES
 RMS     Displacement     0.000007     0.001200     YES
 Predicted change in Energy=-2.048902D-10
 Optimization completed.
    -- Stationary point found.
                           ----------------------------
                           !   Optimized Parameters   !
                           ! (Angstroms and Degrees)  !
 --------------------------                            --------------------------
 ! Name  Definition              Value          Derivative Info.                !
 --------------------------------------------------------------------------------
 ! R1    R(1,2)                  1.0927         -DE/DX =    0.0                 !
 ! R2    R(1,3)                  1.4071         -DE/DX =    0.0                 !
 ! R3    R(1,11)                 1.4051         -DE/DX =    0.0                 !
 ! R4    R(3,4)                  1.094          -DE/DX =    0.0                 !
 ! R5    R(3,5)                  1.4074         -DE/DX =    0.0                 !
 ! R6    R(5,6)                  1.0934         -DE/DX =    0.0                 !
 ! R7    R(5,7)                  1.4074         -DE/DX =    0.0                 !
 ! R8    R(7,8)                  1.094          -DE/DX =    0.0                 !
 ! R9    R(7,9)                  1.4071         -DE/DX =    0.0                 !
 ! R10   R(9,10)                 1.0927         -DE/DX =    0.0                 !
 ! R11   R(9,11)                 1.4051         -DE/DX =    0.0                 !
 ! R12   R(11,12)                1.7541         -DE/DX =    0.0                 !
 ! A1    A(2,1,3)              121.2114         -DE/DX =    0.0                 !
 ! A2    A(2,1,11)             119.9659         -DE/DX =    0.0                 !
 ! A3    A(3,1,11)             118.8228         -DE/DX =    0.0                 !
 ! A4    A(1,3,4)              119.3426         -DE/DX =    0.0                 !
 ! A5    A(1,3,5)              120.5152         -DE/DX =    0.0                 !
 ! A6    A(4,3,5)              120.1422         -DE/DX =    0.0                 !
 ! A7    A(3,5,6)              120.1349         -DE/DX =    0.0                 !
 ! A8    A(3,5,7)              119.7301         -DE/DX =    0.0                 !
 ! A9    A(6,5,7)              120.1349         -DE/DX =    0.0                 !
 ! A10   A(5,7,8)              120.1422         -DE/DX =    0.0                 !
 ! A11   A(5,7,9)              120.5152         -DE/DX =    0.0                 !
 ! A12   A(8,7,9)              119.3426         -DE/DX =    0.0                 !
 ! A13   A(7,9,10)             121.2114         -DE/DX =    0.0                 !
 ! A14   A(7,9,11)             118.8227         -DE/DX =    0.0                 !
 ! A15   A(10,9,11)            119.9658         -DE/DX =    0.0                 !
 ! A16   A(1,11,9)             121.5939         -DE/DX =    0.0                 !
 ! A17   A(1,11,12)            119.203          -DE/DX =    0.0                 !
 ! A18   A(9,11,12)            119.203          -DE/DX =    0.0                 !
 ! D1    D(2,1,3,4)              0.0            -DE/DX =    0.0                 !
 ! D2    D(2,1,3,5)            180.0            -DE/DX =    0.0                 !
 ! D3    D(11,1,3,4)           180.0            -DE/DX =    0.0                 !
 ! D4    D(11,1,3,5)             0.0            -DE/DX =    0.0                 !
 ! D5    D(2,1,11,9)           180.0            -DE/DX =    0.0                 !
 ! D6    D(2,1,11,12)            0.0            -DE/DX =    0.0                 !
 ! D7    D(3,1,11,9)             0.0            -DE/DX =    0.0                 !
 ! D8    D(3,1,11,12)          180.0            -DE/DX =    0.0                 !
 ! D9    D(1,3,5,6)            180.0            -DE/DX =    0.0                 !
 ! D10   D(1,3,5,7)              0.0            -DE/DX =    0.0                 !
 ! D11   D(4,3,5,6)              0.0            -DE/DX =    0.0                 !
 ! D12   D(4,3,5,7)            180.0            -DE/DX =    0.0                 !
 ! D13   D(3,5,7,8)           -180.0            -DE/DX =    0.0                 !
 ! D14   D(3,5,7,9)              0.0            -DE/DX =    0.0                 !
 ! D15   D(6,5,7,8)              0.0            -DE/DX =    0.0                 !
 ! D16   D(6,5,7,9)            180.0            -DE/DX =    0.0                 !
 ! D17   D(5,7,9,10)           180.0            -DE/DX =    0.0                 !
 ! D18   D(5,7,9,11)             0.0            -DE/DX =    0.0                 !
 ! D19   D(8,7,9,10)             0.0            -DE/DX =    0.0                 !
 ! D20   D(8,7,9,11)           180.0            -DE/DX =    0.0                 !
 ! D21   D(7,9,11,1)             0.0            -DE/DX =    0.0                 !
 ! D22   D(7,9,11,12)          180.0            -DE/DX =    0.0                 !
 ! D23   D(10,9,11,1)          180.0            -DE/DX =    0.0                 !
 ! D24   D(10,9,11,12)           0.0            -DE/DX =    0.0                 !
 --------------------------------------------------------------------------------
 GradGradGradGradGradGradGradGradGradGradGradGradGradGradGradGradGradGrad


 Test job not archived.
 1\1\GINC-N089\Freq\RMP2-FC\Aug-CC-pVDZ\C6H5Cl1\FYLIN\22-Mar-2016\0\\#M
 P2/aug-cc-pVDZ NOSYMM SCF=TIGHT GEOM=ALLCHECK FREQ IOP(7/33=1)\\CHLB O
 PTIMIZED AT MP2/aug-cc-pVDZ\\0,1\C,-0.0163867014,-0.0357611623,0.\H,-0
 .5764230985,-0.9740769029,0.\C,1.3906637141,-0.0264191266,0.\H,1.93306
 12978,-0.97645694,0.\C,2.0972411518,1.1907866894,0.\H,3.1906738649,1.1
 907894111,0.\C,1.3906580812,2.4079891943,0.\H,1.9330514137,3.358029527
 4,0.\C,-0.0163924374,2.4173250131,0.\H,-0.5764338287,3.355637854,0.\C,
 -0.7019663318,1.1907802649,0.\Cl,-2.4560671258,1.1907761776,0.\\Versio
 n=AM64L-G03RevD.02\HF=-689.6479327\MP2=-690.6076241\RMSD=7.656e-09\RMS
 F=2.270e-06\ZeroPoint=0.0901082\Thermal=0.0957652\Dipole=0.6911115,0.0
 000015,0.\DipoleDeriv=-0.2614326,0.0532083,0.,0.0721678,0.0006963,0.,0
 .,0.,-0.0938419,0.0416239,-0.0557732,0.,-0.0426839,0.0098342,0.,0.,0.,
 0.1350486,0.0475276,-0.0315913,0.,0.0063953,0.0823081,0.,0.,0.,-0.1187
 408,0.0117437,0.0598441,0.,0.0613605,-0.0406869,0.,0.,0.,0.1324425,0.0
 408685,0.0000003,0.,0.0000003,-0.0904945,0.,0.,0.,-0.1365741,-0.081547
 4,-0.0000004,0.,-0.0000005,0.0646786,0.,0.,0.,0.1381059,0.0475274,0.03
 15912,0.,-0.0063953,0.0823082,0.,0.,0.,-0.1187408,0.0117441,-0.0598439
 ,0.,-0.0613603,-0.0406875,0.,0.,0.,0.1324425,-0.2614319,-0.0532097,0.,
 -0.0721689,0.0006955,0.,0.,0.,-0.0938419,0.0416233,0.0557734,0.,0.0426
 841,0.0098348,0.,0.,0.,0.1350486,1.1235445,0.0000026,0.,0.0000025,0.01
 40114,0.,0.,0.,-0.051962,-0.7617911,-0.0000015,0.,-0.0000016,-0.092498
 3,0.,0.,0.,-0.0593865\Polar=111.8263425,0.0000509,89.0898547,0.,0.,52.
 8690226\PG=CS [SG(C6H5Cl1)]\NImag=0\\0.69835388,0.03632980,0.72546476,
 0.,0.,0.10194868,-0.12938870,-0.13279984,0.,0.13547226,-0.12952991,-0.
 27390297,0.,0.13698747,0.28643522,0.,0.,-0.03045984,0.,0.,0.02277069,-
 0.35989508,-0.02168945,0.,-0.00818170,0.00427779,0.,0.69094885,0.01770
 802,-0.11261970,0.,-0.02600820,0.00394205,0.,-0.02274964,0.72401308,0.
 ,0.,-0.04072884,0.,0.,0.00015048,0.,0.,0.11105439,-0.00993670,0.026848
 11,0.,0.00089267,-0.00003499,0.,-0.12598995,0.12635968,0.,0.13150237,-
 0.00462327,0.00299187,0.,0.00010093,0.00074955,0.,0.12666330,-0.275937
 17,0.,-0.13318917,0.28858614,0.,0.,0.00072945,0.,0.,-0.00345618,0.,0.,
 -0.03260356,0.,0.,0.02402148,-0.02597425,-0.02900934,0.,-0.00562632,0.
 00117980,0.,-0.17335490,-0.12655202,0.,0.00986123,0.01623099,0.,0.7409
 2892,-0.04673097,0.02035081,0.,0.00124786,0.00193935,0.,-0.08818650,-0
 .29659562,0.,-0.01491492,-0.01528844,0.,0.00000020,0.67721563,0.,0.,-0
 .00583028,0.,0.,0.00855489,0.,0.,-0.04335623,0.,0.,0.00064069,0.,0.,0.
 10761245,0.00075445,-0.00292448,0.,-0.00058251,0.00027425,0.,-0.009636
 74,0.00506240,0.,0.00077141,-0.00005477,0.,-0.34910462,-0.00000074,0.,
 0.36576370,-0.00286560,-0.00469632,0.,-0.00151181,0.00019783,0.,-0.026
 48156,0.00371081,0.,0.00012389,0.00093038,0.,-0.00000074,-0.05410485,0
 .,0.00000076,0.05535289,0.,0.,0.00806960,0.,0.,0.00010203,0.,0.,-0.000
 15803,0.,0.,-0.00322276,0.,0.,-0.03095125,0.,0.,0.02356946,-0.02856090
 ,0.01567529,0.,-0.00111481,0.00121375,0.,0.04150967,0.00962758,0.,-0.0
 0080850,-0.00388593,0.,-0.17335588,0.08818705,0.,-0.00963686,0.0264815
 1,0.,0.69094842,0.01840457,-0.01097406,0.,0.00079853,0.00020784,0.,-0.
 00962719,-0.04893547,0.,-0.00371689,-0.00330395,0.,0.12655265,-0.29659
 477,0.,-0.00506244,0.00371092,0.,0.02274932,0.72401329,0.,0.,0.0068359
 1,0.,0.,-0.00204606,0.,0.,-0.00551778,0.,0.,0.00814434,0.,0.,-0.043356
 23,0.,0.,-0.00015802,0.,0.,0.11105447,-0.00103118,0.00113512,0.,0.0000
 9747,-0.00008517,0.,-0.00080853,0.00371689,0.,0.00055743,0.00093850,0.
 ,0.00986123,0.01491504,0.,0.00077141,-0.00012388,0.,-0.12598877,-0.126
 35892,0.,0.13150113,0.00098666,-0.00001209,0.,-0.00010899,0.00000924,0
 .,0.00388595,-0.00330393,0.,-0.00093849,-0.00100916,0.,-0.01623088,-0.
 01528844,0.,0.00005477,0.00093038,0.,-0.12666254,-0.27593819,0.,0.1331
 8837,0.28858722,0.,0.,-0.00186887,0.,0.,-0.00083867,0.,0.,0.00814434,0
 .,0.,-0.00000875,0.,0.,0.00064070,0.,0.,-0.00322276,0.,0.,-0.03260358,
 0.,0.,0.02402151,0.03738866,-0.00642750,0.,-0.00084984,0.00346056,0.,-
 0.02856072,-0.01840461,0.,-0.00103117,-0.00098668,0.,-0.02597467,0.046
 73072,0.,0.00075442,0.00286564,0.,-0.35989496,-0.01770910,0.,-0.009936
 60,0.00462321,0.,0.69835433,0.00642793,-0.04327754,0.,0.00374195,-0.00
 314538,0.,-0.01567532,-0.01097425,0.,-0.00113512,-0.00001211,0.,0.0290
 0901,0.02035130,0.,0.00292449,-0.00469629,0.,0.02168844,-0.11261984,0.
 ,-0.02684817,0.00299176,0.,-0.03633010,0.72546405,0.,0.,-0.00646463,0.
 ,0.,0.00682007,0.,0.,0.00683591,0.,0.,-0.00186886,0.,0.,-0.00583029,0.
 ,0.,0.00806959,0.,0.,-0.04072886,0.,0.,0.00072944,0.,0.,0.10194876,-0.
 00084981,-0.00374193,0.,0.00065528,-0.00080115,0.,-0.00111478,-0.00079
 852,0.,0.00009747,0.00010899,0.,-0.00562630,-0.00124792,0.,-0.00058252
 ,0.00151181,0.,-0.00818177,0.02600813,0.,0.00089268,-0.00010093,0.,-0.
 12939009,0.13280053,0.,0.13547363,-0.00346055,-0.00314541,0.,0.0008011
 6,-0.00081356,0.,-0.00121375,0.00020782,0.,0.00008517,0.00000924,0.,-0
 .00117984,0.00193934,0.,-0.00027425,0.00019784,0.,-0.00427784,0.003942
 17,0.,0.00003499,0.00074954,0.,0.12953059,-0.27390147,0.,-0.13698819,0
 .28643374,0.,0.,0.00682006,0.,0.,0.00026382,0.,0.,-0.00204606,0.,0.,-0
 .00083867,0.,0.,0.00855488,0.,0.,0.00010203,0.,0.,0.00015047,0.,0.,-0.
 00345618,0.,0.,-0.03045985,0.,0.,0.02277069,-0.14501384,0.12037388,0.,
 0.00732504,-0.01652598,0.,-0.02714637,0.02646850,0.,-0.00438680,-0.001
 03023,0.,-0.00048565,0.00000019,0.,0.00083406,0.,0.,-0.02714589,-0.026
 46879,0.,-0.00438681,0.00103020,0.,-0.14501293,-0.12037312,0.,0.007325
 05,0.01652609,0.,0.51449069,0.08085908,-0.30252180,0.,0.01619545,-0.01
 665368,0.,0.05160003,0.02049095,0.,-0.00051230,0.00220971,0.,0.0000001
 8,-0.04562652,0.,0.00000001,-0.00185155,0.,-0.05160032,0.02049065,0.,0
 .00051227,0.00220972,0.,-0.08085832,-0.30252258,0.,-0.01619532,-0.0166
 5375,0.,-0.00000043,0.67727749,0.,0.,-0.04113600,0.,0.,0.00056408,0.,0
 .,-0.00801463,0.,0.,0.00845217,0.,0.,0.00513379,0.,0.,-0.00137523,0.,0
 .,-0.00801465,0.,0.,0.00845217,0.,0.,-0.04113604,0.,0.,0.00056410,0.,0
 .,0.09717289,-0.03584652,-0.00376966,0.,0.00130117,-0.00041641,0.,0.00
 223026,0.00556992,0.,-0.00152946,-0.00027266,0.,-0.00114879,-0.0000000
 2,0.,-0.00010620,0.,0.,0.00223026,-0.00556988,0.,-0.00152946,0.0002726
 6,0.,-0.03584642,0.00376947,0.,0.00130116,0.00041641,0.,-0.17639653,-0
 .00000032,0.,0.24534053,0.02649425,0.00234244,0.,0.00055550,0.00103450
 ,0.,-0.00080365,-0.00399858,0.,0.00102504,0.00007395,0.,0.,0.00170220,
 0.,0.,0.00031797,0.,0.00080368,-0.00399860,0.,-0.00102504,0.00007394,0
 .,-0.02649442,0.00234233,0.,-0.00055550,0.00103450,0.,-0.00000032,-0.0
 3684865,0.,0.00000048,0.03592400,0.,0.,0.00208476,0.,0.,-0.00242530,0.
 ,0.,0.00624000,0.,0.,0.00001065,0.,0.,-0.00181311,0.,0.,-0.00082466,0.
 ,0.,0.00624000,0.,0.,0.00001065,0.,0.,0.00208477,0.,0.,-0.00242530,0.,
 0.,-0.02066266,0.,0.,0.01148019\\0.00000246,-0.00000568,0.,-0.00000127
 ,0.00000069,0.,0.00000023,0.00000621,0.,-0.00000105,-0.00000242,0.,0.0
 0000224,0.,0.,-0.00000043,0.00000001,0.,0.00000028,-0.00000636,0.,-0.0
 0000102,0.00000246,0.,0.00000251,0.00000580,0.,-0.00000136,-0.00000068
 ,0.,-0.00000058,-0.00000005,0.,-0.00000200,0.,0.\\\@


 HAPPINESS IS NOT HAVING WHAT YOU WANT --
 HAPPINESS IS WANTING WHAT YOU HAVE!

              -- FROM MRS. SEVERN'S DESK
 Job cpu time:  0 days  3 hours 37 minutes 43.6 seconds.
 File lengths (MBytes):  RWF=  10199 Int=      0 D2E=      0 Chk=     10 Scr=      1
 Normal termination of Gaussian 03 at Tue Mar 22 12:15:04 2016.
