 Entering Gaussian System, Link 0=g03
 Initial command:
 /opt/mackerell/apps/gaussian/g03/l1.exe /tmp/fylin/gauss21435/Gau-21438.inp -scrdir=/tmp/fylin/gauss21435/
 Entering Link 1 = /opt/mackerell/apps/gaussian/g03/l1.exe PID=     21440.
  
 Copyright (c) 1988,1990,1992,1993,1995,1998,2003,2004, Gaussian, Inc.
                  All Rights Reserved.
  
 This is the Gaussian(R) 03 program.  It is based on the
 the Gaussian(R) 98 system (copyright 1998, Gaussian, Inc.),
 the Gaussian(R) 94 system (copyright 1995, Gaussian, Inc.),
 the Gaussian 92(TM) system (copyright 1992, Gaussian, Inc.),
 the Gaussian 90(TM) system (copyright 1990, Gaussian, Inc.),
 the Gaussian 88(TM) system (copyright 1988, Gaussian, Inc.),
 the Gaussian 86(TM) system (copyright 1986, Carnegie Mellon
 University), and the Gaussian 82(TM) system (copyright 1983,
 Carnegie Mellon University). Gaussian is a federally registered
 trademark of Gaussian, Inc.
  
 This software contains proprietary and confidential information,
 including trade secrets, belonging to Gaussian, Inc.
  
 This software is provided under written license and may be
 used, copied, transmitted, or stored only in accord with that
 written license.
  
 The following legend is applicable only to US Government
 contracts under FAR:
  
                    RESTRICTED RIGHTS LEGEND
  
 Use, reproduction and disclosure by the US Government is
 subject to restrictions as set forth in subparagraphs (a)
 and (c) of the Commercial Computer Software - Restricted
 Rights clause in FAR 52.227-19.
  
 Gaussian, Inc.
 340 Quinnipiac St., Bldg. 40, Wallingford CT 06492
  
  
 ---------------------------------------------------------------
 Warning -- This program may not be used in any manner that
 competes with the business of Gaussian, Inc. or will provide
 assistance to any competitor of Gaussian, Inc.  The licensee
 of this program is prohibited from giving any competitor of
 Gaussian, Inc. access to this program.  By using this program,
 the user acknowledges that Gaussian, Inc. is engaged in the
 business of creating and licensing software in the field of
 computational chemistry and represents and warrants to the
 licensee that it is not a competitor of Gaussian, Inc. and that
 it will not use this program in any manner prohibited above.
 ---------------------------------------------------------------
  

 Cite this work as:
 Gaussian 03, Revision D.02,
 M. J. Frisch, G. W. Trucks, H. B. Schlegel, G. E. Scuseria, 
 M. A. Robb, J. R. Cheeseman, J. A. Montgomery, Jr., T. Vreven, 
 K. N. Kudin, J. C. Burant, J. M. Millam, S. S. Iyengar, J. Tomasi, 
 V. Barone, B. Mennucci, M. Cossi, G. Scalmani, N. Rega, 
 G. A. Petersson, H. Nakatsuji, M. Hada, M. Ehara, K. Toyota, 
 R. Fukuda, J. Hasegawa, M. Ishida, T. Nakajima, Y. Honda, O. Kitao, 
 H. Nakai, M. Klene, X. Li, J. E. Knox, H. P. Hratchian, J. B. Cross, 
 V. Bakken, C. Adamo, J. Jaramillo, R. Gomperts, R. E. Stratmann, 
 O. Yazyev, A. J. Austin, R. Cammi, C. Pomelli, J. W. Ochterski, 
 P. Y. Ayala, K. Morokuma, G. A. Voth, P. Salvador, J. J. Dannenberg, 
 V. G. Zakrzewski, S. Dapprich, A. D. Daniels, M. C. Strain, 
 O. Farkas, D. K. Malick, A. D. Rabuck, K. Raghavachari, 
 J. B. Foresman, J. V. Ortiz, Q. Cui, A. G. Baboul, S. Clifford, 
 J. Cioslowski, B. B. Stefanov, G. Liu, A. Liashenko, P. Piskorz, 
 I. Komaromi, R. L. Martin, D. J. Fox, T. Keith, M. A. Al-Laham, 
 C. Y. Peng, A. Nanayakkara, M. Challacombe, P. M. W. Gill, 
 B. Johnson, W. Chen, M. W. Wong, C. Gonzalez, and J. A. Pople, 
 Gaussian, Inc., Wallingford CT, 2004.
 
 ******************************************
 Gaussian 03:  AM64L-G03RevD.02  1-Mar-2006
                28-Mar-2016 
 ******************************************
 %CHK=CLET_OPT_FREQ_MP2
 %MEM=1200MB
 %NPROCSHARED=2
 Will use up to    2 processors via shared memory.
 ----------------------------------------------------------------------
 #MP2/aug-cc-pVDZ opt=(tight,maxcycle=200) pop=(mk,dipole) density=curr
 ent
 ----------------------------------------------------------------------
 1/6=200,7=10,18=20,38=1/1,3;
 2/9=110,17=6,18=5,40=1/2;
 3/5=16,7=10,11=9,16=1,25=1,30=1/1,2,3;
 4//1;
 5/5=2,38=5/2;
 8/6=4,10=1/1;
 9/15=2,16=-3/6;
 10/5=1/2;
 6/7=2,8=2,9=2,10=2,15=24,20=1,22=-1/1,2;
 7/12=2/1,2,3,16;
 1/6=200,18=20/3(3);
 2/9=110/2;
 6/7=2,8=2,9=2,10=2,15=24,20=1,22=-1/1,2;
 99//99;
 2/9=110/2;
 3/5=16,7=10,11=9,16=1,25=1,30=1/1,2,3;
 4/5=5,16=3/1;
 5/5=2,38=5/2;
 8/6=4,10=1/1;
 9/15=2,16=-3/6;
 10/5=1/2;
 7/12=2/1,2,3,16;
 1/6=200,18=20/3(-8);
 2/9=110/2;
 6/7=2,8=2,9=2,10=2,15=24,20=1,22=-1/1,2;
 99//99;
 ---------------------------------
 CLET OPTIMIZED AT MP2/aug-cc-pVDZ
 ---------------------------------
 Symbolic Z-matrix:
 Charge =  0 Multiplicity = 1
 C                     1.778     0.00196   0. 
 CL                    0.00049   0.0003    0. 
 H                     2.13783  -0.5273    0.90942 
 H                     2.13783  -0.5273   -0.90942 
 C                     2.35435   1.41688   0. 
 H                     3.4652    1.40099   0. 
 H                     2.02893   1.98693  -0.89555 
 H                     2.02893   1.98693   0.89555 
 

 GradGradGradGradGradGradGradGradGradGradGradGradGradGradGradGradGradGrad
 Berny optimization.
 Initialization pass.
                           ----------------------------
                           !    Initial Parameters    !
                           ! (Angstroms and Degrees)  !
 --------------------------                            --------------------------
 ! Name  Definition              Value          Derivative Info.                !
 --------------------------------------------------------------------------------
 ! R1    R(1,2)                  1.7775         estimate D2E/DX2                !
 ! R2    R(1,3)                  1.112          estimate D2E/DX2                !
 ! R3    R(1,4)                  1.112          estimate D2E/DX2                !
 ! R4    R(1,5)                  1.5278         estimate D2E/DX2                !
 ! R5    R(5,6)                  1.111          estimate D2E/DX2                !
 ! R6    R(5,7)                  1.1103         estimate D2E/DX2                !
 ! R7    R(5,8)                  1.1103         estimate D2E/DX2                !
 ! A1    A(2,1,3)              108.8524         estimate D2E/DX2                !
 ! A2    A(2,1,4)              108.8524         estimate D2E/DX2                !
 ! A3    A(2,1,5)              112.2164         estimate D2E/DX2                !
 ! A4    A(3,1,4)              109.7288         estimate D2E/DX2                !
 ! A5    A(3,1,5)              108.5846         estimate D2E/DX2                !
 ! A6    A(4,1,5)              108.5846         estimate D2E/DX2                !
 ! A7    A(1,5,6)              111.3434         estimate D2E/DX2                !
 ! A8    A(1,5,7)              111.4017         estimate D2E/DX2                !
 ! A9    A(1,5,8)              111.4017         estimate D2E/DX2                !
 ! A10   A(6,5,7)              107.4812         estimate D2E/DX2                !
 ! A11   A(6,5,8)              107.4812         estimate D2E/DX2                !
 ! A12   A(7,5,8)              107.5207         estimate D2E/DX2                !
 ! D1    D(2,1,5,6)            180.0            estimate D2E/DX2                !
 ! D2    D(2,1,5,7)            -60.0299         estimate D2E/DX2                !
 ! D3    D(2,1,5,8)             60.0299         estimate D2E/DX2                !
 ! D4    D(3,1,5,6)             59.6305         estimate D2E/DX2                !
 ! D5    D(3,1,5,7)            179.6006         estimate D2E/DX2                !
 ! D6    D(3,1,5,8)            -60.3396         estimate D2E/DX2                !
 ! D7    D(4,1,5,6)            -59.6305         estimate D2E/DX2                !
 ! D8    D(4,1,5,7)             60.3396         estimate D2E/DX2                !
 ! D9    D(4,1,5,8)           -179.6006         estimate D2E/DX2                !
 --------------------------------------------------------------------------------
 Trust Radius=3.00D-01 FncErr=1.00D-07 GrdErr=1.00D-07
 Number of steps in this run= 100 maximum allowed number of steps= 100.
 GradGradGradGradGradGradGradGradGradGradGradGradGradGradGradGradGradGrad

                          Input orientation:                          
 ---------------------------------------------------------------------
 Center     Atomic     Atomic              Coordinates (Angstroms)
 Number     Number      Type              X           Y           Z
 ---------------------------------------------------------------------
    1          6             0        1.778000    0.001960    0.000000
    2         17             0        0.000490    0.000300    0.000000
    3          1             0        2.137830   -0.527300    0.909420
    4          1             0        2.137830   -0.527300   -0.909420
    5          6             0        2.354350    1.416880    0.000000
    6          1             0        3.465200    1.400990    0.000000
    7          1             0        2.028930    1.986930   -0.895550
    8          1             0        2.028930    1.986930    0.895550
 ---------------------------------------------------------------------
                    Distance matrix (angstroms):
                    1          2          3          4          5
     1  C    0.000000
     2  Cl   1.777511   0.000000
     3  H    1.112042   2.381938   0.000000
     4  H    1.112042   2.381938   1.818840   0.000000
     5  C    1.527802   2.747245   2.157258   2.157258   0.000000
     6  H    2.191787   3.737131   2.511426   2.511426   1.110964
     7  H    2.192050   2.977126   3.096955   2.516626   1.110345
     8  H    2.192050   2.977126   2.516626   3.096955   1.110345
                    6          7          8
     6  H    0.000000
     7  H    1.791147   0.000000
     8  H    1.791147   1.791100   0.000000
 Stoichiometry    C2H5Cl
 Framework group  CS[SG(C2HCl),X(H4)]
 Deg. of freedom    11
 Full point group                 CS
 Largest Abelian subgroup         CS      NOp   2
 Largest concise Abelian subgroup CS      NOp   2
                         Standard orientation:                         
 ---------------------------------------------------------------------
 Center     Atomic     Atomic              Coordinates (Angstroms)
 Number     Number      Type              X           Y           Z
 ---------------------------------------------------------------------
    1          6             0        0.000000    0.795739    0.000000
    2         17             0        0.840561   -0.770467    0.000000
    3          1             0        0.296714    1.362797    0.909420
    4          1             0        0.296714    1.362797   -0.909420
    5          6             0       -1.519417    0.635897    0.000000
    6          1             0       -2.029801    1.622684    0.000000
    7          1             0       -1.868334    0.079918   -0.895550
    8          1             0       -1.868334    0.079918    0.895550
 ---------------------------------------------------------------------
 Rotational constants (GHZ):     31.5722244      5.4355061      4.9345117
 Standard basis: Aug-CC-pVDZ (5D, 7F)
 There are    76 symmetry adapted basis functions of A'  symmetry.
 There are    42 symmetry adapted basis functions of A"  symmetry.
 Integral buffers will be    131072 words long.
 Raffenetti 1 integral format.
 Two-electron integral symmetry is turned on.
   118 basis functions,   224 primitive gaussians,   124 cartesian basis functions
    17 alpha electrons       17 beta electrons
       nuclear repulsion energy       102.4241500989 Hartrees.
 NAtoms=    8 NActive=    8 NUniq=    6 SFac= 1.33D+00 NAtFMM=   80 NAOKFM=F Big=F
 One-electron integrals computed using PRISM.
 NBasis=   118 RedAO= T  NBF=    76    42
 NBsUse=   118 1.00D-06 NBFU=    76    42
 Harris functional with IExCor=  205 diagonalized for initial guess.
 ExpMin= 2.97D-02 ExpMax= 1.28D+05 ExpMxC= 1.24D+03 IAcc=3 IRadAn=         5 AccDes= 0.00D+00
 HarFok:  IExCor= 205 AccDes= 0.00D+00 IRadAn=         5 IDoV=1
 ScaDFX=  1.000000  1.000000  1.000000  1.000000
 Initial guess orbital symmetries:
       Occupied  (A') (A') (A') (A') (A') (A') (A") (A') (A') (A')
                 (A") (A') (A') (A") (A') (A') (A")
       Virtual   (A') (A') (A') (A") (A') (A") (A') (A') (A') (A")
                 (A') (A") (A') (A') (A') (A") (A') (A") (A') (A")
                 (A') (A") (A') (A') (A') (A') (A') (A") (A') (A")
                 (A') (A") (A') (A") (A') (A") (A') (A") (A') (A')
                 (A") (A') (A") (A') (A') (A') (A") (A') (A') (A")
                 (A") (A') (A") (A') (A") (A') (A') (A') (A") (A')
                 (A') (A") (A') (A') (A') (A') (A") (A") (A') (A")
                 (A') (A") (A') (A') (A") (A') (A") (A') (A") (A')
                 (A") (A') (A") (A') (A") (A') (A') (A") (A') (A')
                 (A") (A') (A') (A") (A') (A') (A') (A") (A') (A')
                 (A")
 The electronic state of the initial guess is 1-A'.
 Requested convergence on RMS density matrix=1.00D-08 within 128 cycles.
 Requested convergence on MAX density matrix=1.00D-06.
 Requested convergence on             energy=1.00D-06.
 No special actions if energy rises.
 Keep R1 integrals in memory in canonical form, NReq=    31904225.
 SCF Done:  E(RHF) =  -538.162051395     A.U. after   12 cycles
             Convg  =    0.3231D-08             -V/T =  2.0004
             S**2   =   0.0000
 ExpMin= 2.97D-02 ExpMax= 1.28D+05 ExpMxC= 1.24D+03 IAcc=3 IRadAn=         5 AccDes= 0.00D+00
 HarFok:  IExCor= 205 AccDes= 0.00D+00 IRadAn=         5 IDoV=1
 ScaDFX=  1.000000  1.000000  1.000000  1.000000
 Range of M.O.s used for correlation:     8   118
 NBasis=   118 NAE=    17 NBE=    17 NFC=     7 NFV=     0
 NROrb=    111 NOA=    10 NOB=    10 NVA=   101 NVB=   101

 **** Warning!!: The largest alpha MO coefficient is  0.26839401D+02

 Fully direct method using O(ONN) memory.
 JobTyp=1 Pass  1:  I=   8 to  17 NPSUse=  2 ParTrn=T ParDer=T DoDerP=T.
 Spin components of T(2) and E(2):
     alpha-alpha T2 =       0.2075233765D-01 E2=     -0.5372078092D-01
     alpha-beta  T2 =       0.1244365087D+00 E2=     -0.3458129314D+00
     beta-beta   T2 =       0.2075233765D-01 E2=     -0.5372078092D-01
 ANorm=    0.1079787564D+01
 E2 =    -0.4532544932D+00 EUMP2 =    -0.53861530588793D+03
 DoAtom=TTTTTTTT
          Differentiating once with respect to electric field.
                with respect to dipole field.
          Differentiating once with respect to nuclear coordinates.
          Store integrals in memory, NReq=    30856281.
          There are   1 degrees of freedom in the 1st order CPHF.
     1 vectors were produced by pass  0.
 AX will form   1 AO Fock derivatives at one time.
     1 vectors were produced by pass  1.
     1 vectors were produced by pass  2.
     1 vectors were produced by pass  3.
     1 vectors were produced by pass  4.
     1 vectors were produced by pass  5.
     1 vectors were produced by pass  6.
     1 vectors were produced by pass  7.
     1 vectors were produced by pass  8.
     1 vectors were produced by pass  9.
     1 vectors were produced by pass 10.
     1 vectors were produced by pass 11.
 Inv2:  IOpt= 1 Iter= 1 AM= 3.12D-16 Conv= 1.00D-12.
 Inverted reduced A of dimension   12 with in-core refinement.
 End of Minotr Frequency-dependent properties file   721 does not exist.

 **********************************************************************

            Population analysis using the MP2 density.

 **********************************************************************

 Orbital symmetries:
       Occupied  (A') (A') (A') (A') (A') (A') (A") (A') (A') (A')
                 (A") (A') (A') (A") (A') (A") (A')
       Virtual   (A') (A') (A") (A') (A") (A') (A') (A') (A") (A')
                 (A') (A') (A") (A') (A") (A') (A') (A') (A") (A")
                 (A') (A') (A") (A') (A') (A') (A") (A') (A') (A")
                 (A') (A") (A') (A") (A") (A') (A") (A') (A") (A')
                 (A') (A') (A') (A") (A") (A') (A') (A") (A') (A')
                 (A') (A") (A") (A') (A') (A") (A') (A") (A') (A')
                 (A") (A') (A') (A') (A') (A") (A') (A") (A') (A")
                 (A') (A") (A') (A') (A') (A") (A") (A') (A") (A")
                 (A') (A") (A') (A') (A") (A') (A') (A") (A') (A')
                 (A") (A') (A') (A") (A') (A') (A') (A") (A') (A')
                 (A")
 The electronic state is 1-A'.
 Alpha  occ. eigenvalues -- -104.82238 -11.30553 -11.24683 -10.54885  -8.01653
 Alpha  occ. eigenvalues --   -8.01332  -8.01328  -1.13973  -0.99711  -0.83551
 Alpha  occ. eigenvalues --   -0.64333  -0.60753  -0.55553  -0.52183  -0.50942
 Alpha  occ. eigenvalues --   -0.43205  -0.43202
 Alpha virt. eigenvalues --    0.03486   0.04917   0.05047   0.06061   0.07807
 Alpha virt. eigenvalues --    0.09428   0.12272   0.13317   0.14617   0.15033
 Alpha virt. eigenvalues --    0.16382   0.17891   0.17969   0.19014   0.19071
 Alpha virt. eigenvalues --    0.19949   0.24471   0.27992   0.28293   0.29278
 Alpha virt. eigenvalues --    0.32532   0.35959   0.36747   0.37407   0.38991
 Alpha virt. eigenvalues --    0.40645   0.43386   0.43703   0.44984   0.47572
 Alpha virt. eigenvalues --    0.47819   0.49014   0.51512   0.53565   0.54431
 Alpha virt. eigenvalues --    0.56218   0.58263   0.58490   0.60785   0.61141
 Alpha virt. eigenvalues --    0.64377   0.66847   0.66928   0.69362   0.69787
 Alpha virt. eigenvalues --    0.70593   0.71307   0.73001   0.75245   0.78673
 Alpha virt. eigenvalues --    0.82484   0.83708   0.89864   0.90921   1.00172
 Alpha virt. eigenvalues --    1.00907   1.05243   1.09691   1.09881   1.14734
 Alpha virt. eigenvalues --    1.19775   1.20123   1.27259   1.31383   1.40782
 Alpha virt. eigenvalues --    1.45688   1.45937   1.46160   1.48241   1.48459
 Alpha virt. eigenvalues --    1.53643   1.58376   1.63126   1.75472   1.79613
 Alpha virt. eigenvalues --    1.79674   1.88315   1.93230   1.94362   1.98659
 Alpha virt. eigenvalues --    1.99859   2.08446   2.09348   2.13281   2.17349
 Alpha virt. eigenvalues --    2.20057   2.20883   2.23372   2.31558   2.42586
 Alpha virt. eigenvalues --    2.45003   2.46552   2.52785   2.63162   2.64967
 Alpha virt. eigenvalues --    2.79214   2.82685   2.86635   2.94794   3.02149
 Alpha virt. eigenvalues --    3.07767
          Condensed to atoms (all electrons):
              1          2          3          4          5          6
     1  C    5.587157   0.106637   0.204104   0.204104   0.293079   0.010352
     2  Cl   0.106637  17.310788  -0.097888  -0.097888  -0.111907   0.012890
     3  H    0.204104  -0.097888   1.079453  -0.148469  -0.034861  -0.039943
     4  H    0.204104  -0.097888  -0.148469   1.079453  -0.034861  -0.039943
     5  C    0.293079  -0.111907  -0.034861  -0.034861   4.710608   0.250173
     6  H    0.010352   0.012890  -0.039943  -0.039943   0.250173   1.163199
     7  H   -0.097435  -0.021210   0.045891  -0.060597   0.296626  -0.148309
     8  H   -0.097435  -0.021210  -0.060597   0.045891   0.296626  -0.148309
              7          8
     1  C   -0.097435  -0.097435
     2  Cl  -0.021210  -0.021210
     3  H    0.045891  -0.060597
     4  H   -0.060597   0.045891
     5  C    0.296626   0.296626
     6  H   -0.148309  -0.148309
     7  H    1.171662  -0.142503
     8  H   -0.142503   1.171662
 Mulliken atomic charges:
              1
     1  C   -0.210564
     2  Cl  -0.080212
     3  H    0.052308
     4  H    0.052308
     5  C    0.334517
     6  H   -0.060109
     7  H   -0.044125
     8  H   -0.044125
 Sum of Mulliken charges=   0.00000
 Atomic charges with hydrogens summed into heavy atoms:
              1
     1  C   -0.105947
     2  Cl  -0.080212
     3  H    0.000000
     4  H    0.000000
     5  C    0.186159
     6  H    0.000000
     7  H    0.000000
     8  H    0.000000
 Sum of Mulliken charges=   0.00000
 Electronic spatial extent (au):  <R**2>=   285.6085
 Charge=     0.0000 electrons
 Dipole moment (field-independent basis, Debye):
    X=    -1.1149    Y=     1.6818    Z=     0.0000  Tot=     2.0178
 Quadrupole moment (field-independent basis, Debye-Ang):
   XX=   -27.7791   YY=   -26.4227   ZZ=   -26.9852
   XY=     0.0923   XZ=     0.0000   YZ=     0.0000
 Traceless Quadrupole moment (field-independent basis, Debye-Ang):
   XX=    -0.7168   YY=     0.6397   ZZ=     0.0771
   XY=     0.0923   XZ=     0.0000   YZ=     0.0000
 Octapole moment (field-independent basis, Debye-Ang**2):
  XXX=     1.6941  YYY=    -2.0833  ZZZ=     0.0000  XYY=     1.8681
  XXY=    -0.8106  XXZ=     0.0000  XZZ=     0.5553  YZZ=     0.3661
  YYZ=     0.0000  XYZ=     0.0000
 Hexadecapole moment (field-independent basis, Debye-Ang**3):
 XXXX=  -218.1120 YYYY=  -134.2132 ZZZZ=   -45.3411 XXXY=    45.5346
 XXXZ=     0.0000 YYYX=    42.0295 YYYZ=     0.0000 ZZZX=     0.0000
 ZZZY=     0.0000 XXYY=   -55.2763 XXZZ=   -43.0961 YYZZ=   -30.4030
 XXYZ=     0.0000 YYXZ=     0.0000 ZZXY=    17.8020
 N-N= 1.024241500989D+02 E-N=-1.481559291506D+03  KE= 5.381750706209D+02
 Symmetry A'   KE= 4.884941989170D+02
 Symmetry A"   KE= 4.968087170396D+01
 Merz-Kollman atomic radii used.

 **********************************************************************

          Electrostatic Properties Using The MP2 Density

 **********************************************************************

       Atomic Center    1 is at   0.000000  0.795739  0.000000
       Atomic Center    2 is at   0.840561 -0.770467  0.000000
       Atomic Center    3 is at   0.296714  1.362797  0.909420
       Atomic Center    4 is at   0.296714  1.362797 -0.909420
       Atomic Center    5 is at  -1.519417  0.635897  0.000000
       Atomic Center    6 is at  -2.029801  1.622684  0.000000
       Atomic Center    7 is at  -1.868334  0.079918 -0.895550
       Atomic Center    8 is at  -1.868334  0.079918  0.895550
     591 points will be used for fitting atomic charges
 Fitting point charges to eletrostatic potential
 The dipole moment will be constrained to the correct value
 Charges from ESP fit, RMS=   0.00253 RRMS=   0.23588:
 Charge=   0.00000 Dipole=    -1.1149     1.6818     0.0000 Tot=     2.0178
              1
     1  C   -0.104806
     2  Cl  -0.168166
     3  H    0.102634
     4  H    0.102634
     5  C   -0.057025
     6  H    0.032754
     7  H    0.045987
     8  H    0.045987
 -----------------------------------------------------------------

              Electrostatic Properties (Atomic Units)

 -----------------------------------------------------------------
    Center     Electric         -------- Electric Field --------
               Potential          X             Y             Z
 -----------------------------------------------------------------
    1 Atom    -14.671067
    2 Atom    -64.406932
    3 Atom     -1.073038
    4 Atom     -1.073038
    5 Atom    -14.727557
    6 Atom     -1.079879
    7 Atom     -1.087766
    8 Atom     -1.087766
 -----------------------------------------------------------------
 ***** Axes restored to original set *****
 -------------------------------------------------------------------
 Center     Atomic                   Forces (Hartrees/Bohr)
 Number     Number              X              Y              Z
 -------------------------------------------------------------------
    1          6           0.026639225   -0.000218301    0.000000000
    2         17          -0.007183437   -0.000262946    0.000000000
    3          1          -0.006621527   -0.000045611   -0.007777303
    4          1          -0.006621527   -0.000045611    0.007777303
    5          6          -0.002293240    0.012650852    0.000000000
    6          1          -0.005650176   -0.003751571    0.000000000
    7          1           0.000865341   -0.004163406    0.004511913
    8          1           0.000865341   -0.004163406   -0.004511913
 -------------------------------------------------------------------
 Cartesian Forces:  Max     0.026639225 RMS     0.007240555

 GradGradGradGradGradGradGradGradGradGradGradGradGradGradGradGradGradGrad
 Berny optimization.
 Internal  Forces:  Max     0.008481078 RMS     0.004322394
 Search for a local minimum.
 Step number   1 out of a maximum of 100
 All quantities printed in internal units (Hartrees-Bohrs-Radians)
 Second derivative matrix not updated -- first step.
     Eigenvalues ---    0.00398   0.05471   0.05479   0.05578   0.06186
     Eigenvalues ---    0.16000   0.16000   0.16000   0.16000   0.16000
     Eigenvalues ---    0.22483   0.27971   0.29627   0.32385   0.32385
     Eigenvalues ---    0.32498   0.32564   0.325641000.000001000.00000
     Eigenvalues --- 1000.000001000.000001000.000001000.000001000.00000
     Eigenvalues --- 1000.000001000.000001000.00000
 RFO step:  Lambda=-2.43225888D-03.
 Linear search not attempted -- first point.
 Iteration  1 RMS(Cart)=  0.01821838 RMS(Int)=  0.00085576
 Iteration  2 RMS(Cart)=  0.00076393 RMS(Int)=  0.00057405
 Iteration  3 RMS(Cart)=  0.00000093 RMS(Int)=  0.00057405
 Variable       Old X    -DE/DX   Delta X   Delta X   Delta X     New X
                                 (Linear)    (Quad)   (Total)
    R1        3.35901   0.00718   0.00000   0.02546   0.02546   3.38447
    R2        2.10146  -0.00848   0.00000  -0.02599  -0.02599   2.07546
    R3        2.10146  -0.00848   0.00000  -0.02599  -0.02599   2.07546
    R4        2.88713  -0.00181   0.00000  -0.00607  -0.00607   2.88106
    R5        2.09942  -0.00560   0.00000  -0.01709  -0.01709   2.08233
    R6        2.09825  -0.00603   0.00000  -0.01838  -0.01838   2.07987
    R7        2.09825  -0.00603   0.00000  -0.01838  -0.01838   2.07987
    A1        1.89983  -0.00359   0.00000  -0.03213  -0.03180   1.86804
    A2        1.89983  -0.00359   0.00000  -0.03213  -0.03180   1.86804
    A3        1.95855  -0.00276   0.00000  -0.01740  -0.01705   1.94150
    A4        1.91513  -0.00489   0.00000  -0.01380  -0.01591   1.89922
    A5        1.89516   0.00736   0.00000   0.04774   0.04677   1.94193
    A6        1.89516   0.00736   0.00000   0.04774   0.04677   1.94193
    A7        1.94331  -0.00499   0.00000  -0.03285  -0.03300   1.91031
    A8        1.94433  -0.00078   0.00000  -0.00377  -0.00384   1.94049
    A9        1.94433  -0.00078   0.00000  -0.00377  -0.00384   1.94049
   A10        1.87590   0.00286   0.00000   0.01563   0.01548   1.89138
   A11        1.87590   0.00286   0.00000   0.01563   0.01548   1.89138
   A12        1.87659   0.00128   0.00000   0.01185   0.01186   1.88845
    D1        3.14159   0.00000   0.00000   0.00000   0.00000   3.14159
    D2       -1.04772  -0.00028   0.00000  -0.00497  -0.00493  -1.05265
    D3        1.04772   0.00028   0.00000   0.00497   0.00493   1.05265
    D4        1.04075   0.00129   0.00000   0.01911   0.01975   1.06050
    D5        3.13462   0.00101   0.00000   0.01414   0.01482  -3.13375
    D6       -1.05312   0.00157   0.00000   0.02408   0.02467  -1.02845
    D7       -1.04075  -0.00129   0.00000  -0.01911  -0.01975  -1.06050
    D8        1.05312  -0.00157   0.00000  -0.02408  -0.02467   1.02845
    D9       -3.13462  -0.00101   0.00000  -0.01414  -0.01482   3.13375
         Item               Value     Threshold  Converged?
 Maximum Force            0.008481     0.000015     NO 
 RMS     Force            0.004322     0.000010     NO 
 Maximum Displacement     0.049984     0.000060     NO 
 RMS     Displacement     0.018088     0.000040     NO 
 Predicted change in Energy=-1.245084D-03
 GradGradGradGradGradGradGradGradGradGradGradGradGradGradGradGradGradGrad

                          Input orientation:                          
 ---------------------------------------------------------------------
 Center     Atomic     Atomic              Coordinates (Angstroms)
 Number     Number      Type              X           Y           Z
 ---------------------------------------------------------------------
    1          6             0        1.804450    0.010341    0.000000
    2         17             0        0.013468    0.007911    0.000000
    3          1             0        2.126868   -0.541589    0.893116
    4          1             0        2.126868   -0.541589   -0.893116
    5          6             0        2.354836    1.432117    0.000000
    6          1             0        3.456265    1.399245    0.000000
    7          1             0        2.024402    1.986476   -0.891549
    8          1             0        2.024402    1.986476    0.891549
 ---------------------------------------------------------------------
                    Distance matrix (angstroms):
                    1          2          3          4          5
     1  C    0.000000
     2  Cl   1.790984   0.000000
     3  H    1.098287   2.359251   0.000000
     4  H    1.098287   2.359251   1.786231   0.000000
     5  C    1.524589   2.740505   2.178334   2.178334   0.000000
     6  H    2.158135   3.713309   2.516304   2.516304   1.101919
     7  H    2.179070   2.958620   3.096229   2.530141   1.100618
     8  H    2.179070   2.958620   2.530141   3.096229   1.100618
                    6          7          8
     6  H    0.000000
     7  H    1.786038   0.000000
     8  H    1.786038   1.783098   0.000000
 Stoichiometry    C2H5Cl
 Framework group  CS[SG(C2HCl),X(H4)]
 Deg. of freedom    11
 Full point group                 CS
 Largest Abelian subgroup         CS      NOp   2
 Largest concise Abelian subgroup CS      NOp   2
                         Standard orientation:                         
 ---------------------------------------------------------------------
 Center     Atomic     Atomic              Coordinates (Angstroms)
 Number     Number      Type              X           Y           Z
 ---------------------------------------------------------------------
    1          6             0        0.000000    0.809604    0.000000
    2         17             0        0.830200   -0.777340    0.000000
    3          1             0        0.340330    1.350673    0.893116
    4          1             0        0.340330    1.350673   -0.893116
    5          6             0       -1.515158    0.640286    0.000000
    6          1             0       -1.995246    1.632123    0.000000
    7          1             0       -1.853935    0.090986   -0.891549
    8          1             0       -1.853935    0.090986    0.891549
 ---------------------------------------------------------------------
 Rotational constants (GHZ):     31.2456594      5.4687680      4.9466298
 Standard basis: Aug-CC-pVDZ (5D, 7F)
 There are    76 symmetry adapted basis functions of A'  symmetry.
 There are    42 symmetry adapted basis functions of A"  symmetry.
 Integral buffers will be    131072 words long.
 Raffenetti 1 integral format.
 Two-electron integral symmetry is turned on.
   118 basis functions,   224 primitive gaussians,   124 cartesian basis functions
    17 alpha electrons       17 beta electrons
       nuclear repulsion energy       102.5584136168 Hartrees.
 NAtoms=    8 NActive=    8 NUniq=    6 SFac= 1.33D+00 NAtFMM=   80 NAOKFM=F Big=F
 One-electron integrals computed using PRISM.
 NBasis=   118 RedAO= T  NBF=    76    42
 NBsUse=   118 1.00D-06 NBFU=    76    42
 Initial guess read from the read-write file:
 Initial guess orbital symmetries:
       Occupied  (A') (A') (A') (A') (A') (A') (A") (A') (A') (A')
                 (A") (A') (A') (A") (A') (A") (A')
       Virtual   (A') (A') (A") (A') (A") (A') (A') (A') (A") (A')
                 (A') (A') (A") (A') (A") (A') (A') (A') (A") (A")
                 (A') (A') (A") (A') (A') (A') (A") (A') (A') (A")
                 (A') (A") (A') (A") (A") (A') (A") (A') (A") (A')
                 (A') (A') (A') (A") (A") (A') (A') (A") (A') (A')
                 (A') (A") (A") (A') (A') (A") (A') (A") (A') (A')
                 (A") (A') (A') (A') (A') (A") (A') (A") (A') (A")
                 (A') (A") (A') (A') (A') (A") (A") (A') (A") (A")
                 (A') (A") (A') (A') (A") (A') (A') (A") (A') (A')
                 (A") (A') (A') (A") (A') (A') (A') (A") (A') (A')
                 (A")
 Harris functional with IExCor=  205 diagonalized for initial guess.
 ExpMin= 2.97D-02 ExpMax= 1.28D+05 ExpMxC= 1.24D+03 IAcc=3 IRadAn=         5 AccDes= 0.00D+00
 HarFok:  IExCor= 205 AccDes= 0.00D+00 IRadAn=         5 IDoV=1
 ScaDFX=  1.000000  1.000000  1.000000  1.000000
 Requested convergence on RMS density matrix=1.00D-08 within 128 cycles.
 Requested convergence on MAX density matrix=1.00D-06.
 Requested convergence on             energy=1.00D-06.
 No special actions if energy rises.
 Keep R1 integrals in memory in canonical form, NReq=    31904225.
 SCF Done:  E(RHF) =  -538.164495140     A.U. after   10 cycles
             Convg  =    0.9413D-08             -V/T =  2.0003
             S**2   =   0.0000
 ExpMin= 2.97D-02 ExpMax= 1.28D+05 ExpMxC= 1.24D+03 IAcc=3 IRadAn=         5 AccDes= 0.00D+00
 HarFok:  IExCor= 205 AccDes= 0.00D+00 IRadAn=         5 IDoV=1
 ScaDFX=  1.000000  1.000000  1.000000  1.000000
 Range of M.O.s used for correlation:     8   118
 NBasis=   118 NAE=    17 NBE=    17 NFC=     7 NFV=     0
 NROrb=    111 NOA=    10 NOB=    10 NVA=   101 NVB=   101

 **** Warning!!: The largest alpha MO coefficient is  0.26520165D+02

 Fully direct method using O(ONN) memory.
 JobTyp=1 Pass  1:  I=   8 to  17 NPSUse=  2 ParTrn=T ParDer=T DoDerP=T.
 Spin components of T(2) and E(2):
     alpha-alpha T2 =       0.2067189309D-01 E2=     -0.5363601915D-01
     alpha-beta  T2 =       0.1236622459D+00 E2=     -0.3449472961D+00
     beta-beta   T2 =       0.2067189309D-01 E2=     -0.5363601915D-01
 ANorm=    0.1079354452D+01
 E2 =    -0.4522193344D+00 EUMP2 =    -0.53861671447443D+03
 DoAtom=TTTTTTTT
          Differentiating once with respect to electric field.
                with respect to dipole field.
          Differentiating once with respect to nuclear coordinates.
          Store integrals in memory, NReq=    30856281.
          There are   1 degrees of freedom in the 1st order CPHF.
     1 vectors were produced by pass  0.
 AX will form   1 AO Fock derivatives at one time.
     1 vectors were produced by pass  1.
     1 vectors were produced by pass  2.
     1 vectors were produced by pass  3.
     1 vectors were produced by pass  4.
     1 vectors were produced by pass  5.
     1 vectors were produced by pass  6.
     1 vectors were produced by pass  7.
     1 vectors were produced by pass  8.
     1 vectors were produced by pass  9.
     1 vectors were produced by pass 10.
     1 vectors were produced by pass 11.
 Inv2:  IOpt= 1 Iter= 1 AM= 2.90D-16 Conv= 1.00D-12.
 Inverted reduced A of dimension   12 with in-core refinement.
 End of Minotr Frequency-dependent properties file   721 does not exist.
 ***** Axes restored to original set *****
 -------------------------------------------------------------------
 Center     Atomic                   Forces (Hartrees/Bohr)
 Number     Number              X              Y              Z
 -------------------------------------------------------------------
    1          6           0.008846987    0.002228472    0.000000000
    2         17          -0.006033175   -0.000200997    0.000000000
    3          1          -0.000993208   -0.000320485    0.000353052
    4          1          -0.000993208   -0.000320485   -0.000353052
    5          6          -0.000704795    0.001053774    0.000000000
    6          1           0.000445497   -0.000413066    0.000000000
    7          1          -0.000284048   -0.001013606    0.000019960
    8          1          -0.000284048   -0.001013606   -0.000019960
 -------------------------------------------------------------------
 Cartesian Forces:  Max     0.008846987 RMS     0.002293975

 GradGradGradGradGradGradGradGradGradGradGradGradGradGradGradGradGradGrad
 Berny optimization.
 Internal  Forces:  Max     0.006033444 RMS     0.001303674
 Search for a local minimum.
 Step number   2 out of a maximum of 100
 All quantities printed in internal units (Hartrees-Bohrs-Radians)
 Update second derivatives using D2CorX and points  1  2
 Trust test= 1.13D+00 RLast= 1.19D-01 DXMaxT set to 3.57D-01
     Eigenvalues ---    0.00398   0.05455   0.05538   0.05545   0.05709
     Eigenvalues ---    0.13890   0.16000   0.16000   0.16000   0.16604
     Eigenvalues ---    0.22308   0.25326   0.29548   0.32385   0.32465
     Eigenvalues ---    0.32493   0.32564   0.362071000.000001000.00000
     Eigenvalues --- 1000.000001000.000001000.000001000.000001000.00000
     Eigenvalues --- 1000.000001000.000001000.00000
 RFO step:  Lambda=-2.03996040D-04.
 Quartic linear search produced a step of  0.19127.
 Iteration  1 RMS(Cart)=  0.00658557 RMS(Int)=  0.00017239
 Iteration  2 RMS(Cart)=  0.00007331 RMS(Int)=  0.00016004
 Iteration  3 RMS(Cart)=  0.00000002 RMS(Int)=  0.00016004
 Variable       Old X    -DE/DX   Delta X   Delta X   Delta X     New X
                                 (Linear)    (Quad)   (Total)
    R1        3.38447   0.00603   0.00487   0.02288   0.02775   3.41222
    R2        2.07546   0.00016  -0.00497   0.00346  -0.00152   2.07395
    R3        2.07546   0.00016  -0.00497   0.00346  -0.00152   2.07395
    R4        2.88106  -0.00159  -0.00116  -0.00573  -0.00689   2.87416
    R5        2.08233   0.00046  -0.00327   0.00357   0.00030   2.08263
    R6        2.07987  -0.00044  -0.00352   0.00042  -0.00309   2.07677
    R7        2.07987  -0.00044  -0.00352   0.00042  -0.00309   2.07677
    A1        1.86804  -0.00072  -0.00608  -0.00563  -0.01162   1.85642
    A2        1.86804  -0.00072  -0.00608  -0.00563  -0.01162   1.85642
    A3        1.94150  -0.00011  -0.00326  -0.00110  -0.00426   1.93724
    A4        1.89922  -0.00023  -0.00304   0.00697   0.00335   1.90257
    A5        1.94193   0.00083   0.00895   0.00248   0.01115   1.95308
    A6        1.94193   0.00083   0.00895   0.00248   0.01115   1.95308
    A7        1.91031  -0.00014  -0.00631   0.00312  -0.00323   1.90707
    A8        1.94049  -0.00108  -0.00073  -0.00782  -0.00860   1.93189
    A9        1.94049  -0.00108  -0.00073  -0.00782  -0.00860   1.93189
   A10        1.89138   0.00066   0.00296   0.00367   0.00659   1.89797
   A11        1.89138   0.00066   0.00296   0.00367   0.00659   1.89797
   A12        1.88845   0.00107   0.00227   0.00573   0.00796   1.89642
    D1        3.14159   0.00000   0.00000   0.00000   0.00000   3.14159
    D2       -1.05265   0.00005  -0.00094   0.00168   0.00074  -1.05191
    D3        1.05265  -0.00005   0.00094  -0.00168  -0.00074   1.05191
    D4        1.06050   0.00043   0.00378   0.00618   0.01014   1.07063
    D5       -3.13375   0.00049   0.00283   0.00786   0.01087  -3.12287
    D6       -1.02845   0.00038   0.00472   0.00451   0.00940  -1.01905
    D7       -1.06050  -0.00043  -0.00378  -0.00618  -0.01014  -1.07063
    D8        1.02845  -0.00038  -0.00472  -0.00451  -0.00940   1.01905
    D9        3.13375  -0.00049  -0.00283  -0.00786  -0.01087   3.12287
         Item               Value     Threshold  Converged?
 Maximum Force            0.006033     0.000015     NO 
 RMS     Force            0.001304     0.000010     NO 
 Maximum Displacement     0.019379     0.000060     NO 
 RMS     Displacement     0.006589     0.000040     NO 
 Predicted change in Energy=-1.398848D-04
 GradGradGradGradGradGradGradGradGradGradGradGradGradGradGradGradGradGrad

                          Input orientation:                          
 ---------------------------------------------------------------------
 Center     Atomic     Atomic              Coordinates (Angstroms)
 Number     Number      Type              X           Y           Z
 ---------------------------------------------------------------------
    1          6             0        1.814705    0.014398    0.000000
    2         17             0        0.009038    0.012329    0.000000
    3          1             0        2.124567   -0.542435    0.893531
    4          1             0        2.124567   -0.542435   -0.893531
    5          6             0        2.358022    1.434987    0.000000
    6          1             0        3.459638    1.403012    0.000000
    7          1             0        2.020512    1.979768   -0.892781
    8          1             0        2.020512    1.979768    0.892781
 ---------------------------------------------------------------------
                    Distance matrix (angstroms):
                    1          2          3          4          5
     1  C    0.000000
     2  Cl   1.805669   0.000000
     3  H    1.097486   2.362546   0.000000
     4  H    1.097486   2.362546   1.787062   0.000000
     5  C    1.520942   2.746213   2.182452   2.182452   0.000000
     6  H    2.152685   3.720301   2.523010   2.523010   1.102080
     7  H    2.168431   2.951932   3.092449   2.524348   1.098980
     8  H    2.168431   2.951932   2.524348   3.092449   1.098980
                    6          7          8
     6  H    0.000000
     7  H    1.789075   0.000000
     8  H    1.789075   1.785562   0.000000
 Stoichiometry    C2H5Cl
 Framework group  CS[SG(C2HCl),X(H4)]
 Deg. of freedom    11
 Full point group                 CS
 Largest Abelian subgroup         CS      NOp   2
 Largest concise Abelian subgroup CS      NOp   2
                         Standard orientation:                         
 ---------------------------------------------------------------------
 Center     Atomic     Atomic              Coordinates (Angstroms)
 Number     Number      Type              X           Y           Z
 ---------------------------------------------------------------------
    1          6             0        0.000000    0.818369    0.000000
    2         17             0        0.825618   -0.787493    0.000000
    3          1             0        0.354144    1.348142    0.893531
    4          1             0        0.354144    1.348142   -0.893531
    5          6             0       -1.512008    0.653752    0.000000
    6          1             0       -1.986131    1.648632    0.000000
    7          1             0       -1.842813    0.104873   -0.892781
    8          1             0       -1.842813    0.104873    0.892781
 ---------------------------------------------------------------------
 Rotational constants (GHZ):     31.1306016      5.4418103      4.9222649
 Standard basis: Aug-CC-pVDZ (5D, 7F)
 There are    76 symmetry adapted basis functions of A'  symmetry.
 There are    42 symmetry adapted basis functions of A"  symmetry.
 Integral buffers will be    131072 words long.
 Raffenetti 1 integral format.
 Two-electron integral symmetry is turned on.
   118 basis functions,   224 primitive gaussians,   124 cartesian basis functions
    17 alpha electrons       17 beta electrons
       nuclear repulsion energy       102.3245583365 Hartrees.
 NAtoms=    8 NActive=    8 NUniq=    6 SFac= 1.33D+00 NAtFMM=   80 NAOKFM=F Big=F
 One-electron integrals computed using PRISM.
 NBasis=   118 RedAO= T  NBF=    76    42
 NBsUse=   118 1.00D-06 NBFU=    76    42
 Initial guess read from the read-write file:
 Initial guess orbital symmetries:
       Occupied  (A') (A') (A') (A') (A') (A') (A") (A') (A') (A')
                 (A") (A') (A') (A") (A') (A') (A")
       Virtual   (A') (A') (A") (A') (A") (A') (A') (A') (A") (A')
                 (A') (A') (A") (A') (A") (A') (A') (A') (A") (A")
                 (A') (A') (A") (A') (A') (A') (A") (A') (A') (A")
                 (A') (A") (A') (A") (A") (A') (A") (A') (A") (A')
                 (A') (A') (A') (A") (A") (A') (A') (A") (A') (A')
                 (A') (A") (A") (A') (A') (A") (A') (A") (A') (A')
                 (A") (A') (A') (A') (A') (A") (A") (A') (A') (A")
                 (A') (A") (A') (A') (A') (A") (A") (A') (A") (A")
                 (A') (A") (A') (A') (A") (A') (A') (A") (A') (A')
                 (A") (A') (A') (A") (A') (A') (A') (A") (A') (A')
                 (A")
 Requested convergence on RMS density matrix=1.00D-08 within 128 cycles.
 Requested convergence on MAX density matrix=1.00D-06.
 Requested convergence on             energy=1.00D-06.
 No special actions if energy rises.
 Keep R1 integrals in memory in canonical form, NReq=    31904225.
 SCF Done:  E(RHF) =  -538.164737805     A.U. after   10 cycles
             Convg  =    0.3863D-08             -V/T =  2.0003
             S**2   =   0.0000
 ExpMin= 2.97D-02 ExpMax= 1.28D+05 ExpMxC= 1.24D+03 IAcc=3 IRadAn=         5 AccDes= 0.00D+00
 HarFok:  IExCor= 205 AccDes= 0.00D+00 IRadAn=         5 IDoV=1
 ScaDFX=  1.000000  1.000000  1.000000  1.000000
 Range of M.O.s used for correlation:     8   118
 NBasis=   118 NAE=    17 NBE=    17 NFC=     7 NFV=     0
 NROrb=    111 NOA=    10 NOB=    10 NVA=   101 NVB=   101

 **** Warning!!: The largest alpha MO coefficient is  0.26167644D+02

 Fully direct method using O(ONN) memory.
 JobTyp=1 Pass  1:  I=   8 to  17 NPSUse=  2 ParTrn=T ParDer=T DoDerP=T.
 Spin components of T(2) and E(2):
     alpha-alpha T2 =       0.2068612413D-01 E2=     -0.5360997388D-01
     alpha-beta  T2 =       0.1237849243D+00 E2=     -0.3449177167D+00
     beta-beta   T2 =       0.2068612413D-01 E2=     -0.5360997388D-01
 ANorm=    0.1079424464D+01
 E2 =    -0.4521376644D+00 EUMP2 =    -0.53861687546986D+03
 DoAtom=TTTTTTTT
          Differentiating once with respect to electric field.
                with respect to dipole field.
          Differentiating once with respect to nuclear coordinates.
          Store integrals in memory, NReq=    30856281.
          There are   1 degrees of freedom in the 1st order CPHF.
     1 vectors were produced by pass  0.
 AX will form   1 AO Fock derivatives at one time.
     1 vectors were produced by pass  1.
     1 vectors were produced by pass  2.
     1 vectors were produced by pass  3.
     1 vectors were produced by pass  4.
     1 vectors were produced by pass  5.
     1 vectors were produced by pass  6.
     1 vectors were produced by pass  7.
     1 vectors were produced by pass  8.
     1 vectors were produced by pass  9.
     1 vectors were produced by pass 10.
     1 vectors were produced by pass 11.
 Inv2:  IOpt= 1 Iter= 1 AM= 4.97D-16 Conv= 1.00D-12.
 Inverted reduced A of dimension   12 with in-core refinement.
 End of Minotr Frequency-dependent properties file   721 does not exist.
 ***** Axes restored to original set *****
 -------------------------------------------------------------------
 Center     Atomic                   Forces (Hartrees/Bohr)
 Number     Number              X              Y              Z
 -------------------------------------------------------------------
    1          6           0.001961507   -0.000087499    0.000000000
    2         17          -0.001320966    0.000040893    0.000000000
    3          1          -0.000250507   -0.000151785    0.000652553
    4          1          -0.000250507   -0.000151785   -0.000652553
    5          6          -0.000366233   -0.000469134    0.000000000
    6          1           0.000276327    0.000209726    0.000000000
    7          1          -0.000024811    0.000304792   -0.000385651
    8          1          -0.000024811    0.000304792    0.000385651
 -------------------------------------------------------------------
 Cartesian Forces:  Max     0.001961507 RMS     0.000562141

 GradGradGradGradGradGradGradGradGradGradGradGradGradGradGradGradGradGrad
 Berny optimization.
 Internal  Forces:  Max     0.001320919 RMS     0.000355858
 Search for a local minimum.
 Step number   3 out of a maximum of 100
 All quantities printed in internal units (Hartrees-Bohrs-Radians)
 Update second derivatives using D2CorX and points  1  2  3
 Trust test= 1.15D+00 RLast= 4.81D-02 DXMaxT set to 3.57D-01
     Eigenvalues ---    0.00398   0.04569   0.05556   0.05627   0.05765
     Eigenvalues ---    0.14444   0.16000   0.16000   0.16199   0.16628
     Eigenvalues ---    0.22035   0.24013   0.30026   0.32385   0.32466
     Eigenvalues ---    0.32564   0.32714   0.367331000.000001000.00000
     Eigenvalues --- 1000.000001000.000001000.000001000.000001000.00000
     Eigenvalues --- 1000.000001000.000001000.00000
 RFO step:  Lambda=-1.62237646D-05.
 Quartic linear search produced a step of  0.19793.
 Iteration  1 RMS(Cart)=  0.00260099 RMS(Int)=  0.00002076
 Iteration  2 RMS(Cart)=  0.00000751 RMS(Int)=  0.00001930
 Iteration  3 RMS(Cart)=  0.00000000 RMS(Int)=  0.00001930
 Variable       Old X    -DE/DX   Delta X   Delta X   Delta X     New X
                                 (Linear)    (Quad)   (Total)
    R1        3.41222   0.00132   0.00549   0.00237   0.00786   3.42008
    R2        2.07395   0.00054  -0.00030   0.00159   0.00129   2.07523
    R3        2.07395   0.00054  -0.00030   0.00159   0.00129   2.07523
    R4        2.87416   0.00028  -0.00136   0.00191   0.00054   2.87471
    R5        2.08263   0.00027   0.00006   0.00056   0.00062   2.08325
    R6        2.07677   0.00047  -0.00061   0.00172   0.00111   2.07788
    R7        2.07677   0.00047  -0.00061   0.00172   0.00111   2.07788
    A1        1.85642  -0.00011  -0.00230  -0.00223  -0.00452   1.85190
    A2        1.85642  -0.00011  -0.00230  -0.00223  -0.00452   1.85190
    A3        1.93724  -0.00026  -0.00084  -0.00256  -0.00339   1.93384
    A4        1.90257   0.00020   0.00066   0.00424   0.00483   1.90740
    A5        1.95308   0.00013   0.00221   0.00126   0.00343   1.95651
    A6        1.95308   0.00013   0.00221   0.00126   0.00343   1.95651
    A7        1.90707   0.00025  -0.00064   0.00141   0.00076   1.90784
    A8        1.93189   0.00010  -0.00170   0.00190   0.00020   1.93209
    A9        1.93189   0.00010  -0.00170   0.00190   0.00020   1.93209
   A10        1.89797  -0.00020   0.00130  -0.00214  -0.00084   1.89713
   A11        1.89797  -0.00020   0.00130  -0.00214  -0.00084   1.89713
   A12        1.89642  -0.00008   0.00158  -0.00110   0.00047   1.89689
    D1        3.14159   0.00000   0.00000   0.00000   0.00000   3.14159
    D2       -1.05191  -0.00002   0.00015  -0.00057  -0.00043  -1.05234
    D3        1.05191   0.00002  -0.00015   0.00057   0.00043   1.05234
    D4        1.07063   0.00022   0.00201   0.00369   0.00572   1.07635
    D5       -3.12287   0.00021   0.00215   0.00312   0.00529  -3.11758
    D6       -1.01905   0.00024   0.00186   0.00426   0.00614  -1.01291
    D7       -1.07063  -0.00022  -0.00201  -0.00369  -0.00572  -1.07635
    D8        1.01905  -0.00024  -0.00186  -0.00426  -0.00614   1.01291
    D9        3.12287  -0.00021  -0.00215  -0.00312  -0.00529   3.11758
         Item               Value     Threshold  Converged?
 Maximum Force            0.001321     0.000015     NO 
 RMS     Force            0.000356     0.000010     NO 
 Maximum Displacement     0.006709     0.000060     NO 
 RMS     Displacement     0.002598     0.000040     NO 
 Predicted change in Energy=-1.235292D-05
 GradGradGradGradGradGradGradGradGradGradGradGradGradGradGradGradGradGrad

                          Input orientation:                          
 ---------------------------------------------------------------------
 Center     Atomic     Atomic              Coordinates (Angstroms)
 Number     Number      Type              X           Y           Z
 ---------------------------------------------------------------------
    1          6             0        1.818185    0.013322    0.000000
    2         17             0        0.008355    0.013507    0.000000
    3          1             0        2.122781   -0.544398    0.895623
    4          1             0        2.122781   -0.544398   -0.895623
    5          6             0        2.358555    1.435341    0.000000
    6          1             0        3.460586    1.406562    0.000000
    7          1             0        2.020158    1.979727   -0.893410
    8          1             0        2.020158    1.979727    0.893410
 ---------------------------------------------------------------------
                    Distance matrix (angstroms):
                    1          2          3          4          5
     1  C    0.000000
     2  Cl   1.809830   0.000000
     3  H    1.098167   2.363090   0.000000
     4  H    1.098167   2.363090   1.791245   0.000000
     5  C    1.521229   2.746825   2.185657   2.185657   0.000000
     6  H    2.153741   3.722701   2.529448   2.529448   1.102407
     7  H    2.169268   2.951534   3.095541   2.526211   1.099568
     8  H    2.169268   2.951534   2.526211   3.095541   1.099568
                    6          7          8
     6  H    0.000000
     7  H    1.789283   0.000000
     8  H    1.789283   1.786819   0.000000
 Stoichiometry    C2H5Cl
 Framework group  CS[SG(C2HCl),X(H4)]
 Deg. of freedom    11
 Full point group                 CS
 Largest Abelian subgroup         CS      NOp   2
 Largest concise Abelian subgroup CS      NOp   2
                         Standard orientation:                         
 ---------------------------------------------------------------------
 Center     Atomic     Atomic              Coordinates (Angstroms)
 Number     Number      Type              X           Y           Z
 ---------------------------------------------------------------------
    1          6             0        0.000000    0.821922    0.000000
    2         17             0        0.825299   -0.788782    0.000000
    3          1             0        0.357404    1.347366    0.895623
    4          1             0        0.357404    1.347366   -0.895623
    5          6             0       -1.511958    0.654228    0.000000
    6          1             0       -1.988984    1.648084    0.000000
    7          1             0       -1.842080    0.104785   -0.893410
    8          1             0       -1.842080    0.104785    0.893410
 ---------------------------------------------------------------------
 Rotational constants (GHZ):     31.0034875      5.4367196      4.9158537
 Standard basis: Aug-CC-pVDZ (5D, 7F)
 There are    76 symmetry adapted basis functions of A'  symmetry.
 There are    42 symmetry adapted basis functions of A"  symmetry.
 Integral buffers will be    131072 words long.
 Raffenetti 1 integral format.
 Two-electron integral symmetry is turned on.
   118 basis functions,   224 primitive gaussians,   124 cartesian basis functions
    17 alpha electrons       17 beta electrons
       nuclear repulsion energy       102.2302582356 Hartrees.
 NAtoms=    8 NActive=    8 NUniq=    6 SFac= 1.33D+00 NAtFMM=   80 NAOKFM=F Big=F
 One-electron integrals computed using PRISM.
 NBasis=   118 RedAO= T  NBF=    76    42
 NBsUse=   118 1.00D-06 NBFU=    76    42
 Initial guess read from the read-write file:
 Initial guess orbital symmetries:
       Occupied  (A') (A') (A') (A') (A') (A') (A") (A') (A') (A')
                 (A") (A') (A') (A") (A') (A') (A")
       Virtual   (A') (A') (A") (A') (A") (A') (A') (A') (A") (A')
                 (A') (A') (A") (A') (A") (A') (A') (A') (A") (A")
                 (A') (A') (A") (A') (A') (A') (A") (A') (A') (A")
                 (A') (A") (A') (A") (A") (A') (A") (A') (A") (A')
                 (A') (A') (A') (A") (A") (A') (A') (A") (A') (A')
                 (A') (A") (A") (A') (A') (A") (A') (A") (A') (A')
                 (A") (A') (A') (A') (A') (A") (A') (A") (A') (A")
                 (A') (A") (A') (A') (A') (A") (A") (A') (A") (A")
                 (A') (A") (A') (A') (A") (A') (A') (A") (A') (A')
                 (A") (A') (A') (A") (A') (A') (A') (A") (A') (A')
                 (A")
 Requested convergence on RMS density matrix=1.00D-08 within 128 cycles.
 Requested convergence on MAX density matrix=1.00D-06.
 Requested convergence on             energy=1.00D-06.
 No special actions if energy rises.
 Keep R1 integrals in memory in canonical form, NReq=    31904225.
 SCF Done:  E(RHF) =  -538.164697610     A.U. after    9 cycles
             Convg  =    0.4937D-08             -V/T =  2.0003
             S**2   =   0.0000
 ExpMin= 2.97D-02 ExpMax= 1.28D+05 ExpMxC= 1.24D+03 IAcc=3 IRadAn=         5 AccDes= 0.00D+00
 HarFok:  IExCor= 205 AccDes= 0.00D+00 IRadAn=         5 IDoV=1
 ScaDFX=  1.000000  1.000000  1.000000  1.000000
 Range of M.O.s used for correlation:     8   118
 NBasis=   118 NAE=    17 NBE=    17 NFC=     7 NFV=     0
 NROrb=    111 NOA=    10 NOB=    10 NVA=   101 NVB=   101

 **** Warning!!: The largest alpha MO coefficient is  0.25937458D+02

 Fully direct method using O(ONN) memory.
 JobTyp=1 Pass  1:  I=   8 to  17 NPSUse=  2 ParTrn=T ParDer=T DoDerP=T.
 Spin components of T(2) and E(2):
     alpha-alpha T2 =       0.2069930908D-01 E2=     -0.5360498138D-01
     alpha-beta  T2 =       0.1239067534D+00 E2=     -0.3449810985D+00
     beta-beta   T2 =       0.2069930908D-01 E2=     -0.5360498138D-01
 ANorm=    0.1079493109D+01
 E2 =    -0.4521910613D+00 EUMP2 =    -0.53861688867176D+03
 DoAtom=TTTTTTTT
          Differentiating once with respect to electric field.
                with respect to dipole field.
          Differentiating once with respect to nuclear coordinates.
          Store integrals in memory, NReq=    30856281.
          There are   1 degrees of freedom in the 1st order CPHF.
     1 vectors were produced by pass  0.
 AX will form   1 AO Fock derivatives at one time.
     1 vectors were produced by pass  1.
     1 vectors were produced by pass  2.
     1 vectors were produced by pass  3.
     1 vectors were produced by pass  4.
     1 vectors were produced by pass  5.
     1 vectors were produced by pass  6.
     1 vectors were produced by pass  7.
     1 vectors were produced by pass  8.
     1 vectors were produced by pass  9.
     1 vectors were produced by pass 10.
     1 vectors were produced by pass 11.
 Inv2:  IOpt= 1 Iter= 1 AM= 2.83D-16 Conv= 1.00D-12.
 Inverted reduced A of dimension   12 with in-core refinement.
 End of Minotr Frequency-dependent properties file   721 does not exist.
 ***** Axes restored to original set *****
 -------------------------------------------------------------------
 Center     Atomic                   Forces (Hartrees/Bohr)
 Number     Number              X              Y              Z
 -------------------------------------------------------------------
    1          6           0.000168899   -0.000116317    0.000000000
    2         17          -0.000265026    0.000030590    0.000000000
    3          1           0.000030695    0.000134692    0.000022890
    4          1           0.000030695    0.000134692   -0.000022890
    5          6          -0.000120961   -0.000445027    0.000000000
    6          1           0.000112631    0.000136284    0.000000000
    7          1           0.000021533    0.000062543   -0.000030227
    8          1           0.000021533    0.000062543    0.000030227
 -------------------------------------------------------------------
 Cartesian Forces:  Max     0.000445027 RMS     0.000130219

 GradGradGradGradGradGradGradGradGradGradGradGradGradGradGradGradGradGrad
 Berny optimization.
 Internal  Forces:  Max     0.000265029 RMS     0.000094996
 Search for a local minimum.
 Step number   4 out of a maximum of 100
 All quantities printed in internal units (Hartrees-Bohrs-Radians)
 Update second derivatives using D2CorX and points  1  2  3  4
 Trust test= 1.07D+00 RLast= 1.92D-02 DXMaxT set to 3.57D-01
     Eigenvalues ---    0.00398   0.04465   0.05580   0.05639   0.05761
     Eigenvalues ---    0.14970   0.15947   0.16000   0.16000   0.16825
     Eigenvalues ---    0.20753   0.23110   0.30487   0.32385   0.32481
     Eigenvalues ---    0.32564   0.32871   0.349741000.000001000.00000
     Eigenvalues --- 1000.000001000.000001000.000001000.000001000.00000
     Eigenvalues --- 1000.000001000.000001000.00000
 RFO step:  Lambda=-1.19091174D-06.
 Quartic linear search produced a step of  0.06277.
 Iteration  1 RMS(Cart)=  0.00051947 RMS(Int)=  0.00000064
 Iteration  2 RMS(Cart)=  0.00000032 RMS(Int)=  0.00000057
 Variable       Old X    -DE/DX   Delta X   Delta X   Delta X     New X
                                 (Linear)    (Quad)   (Total)
    R1        3.42008   0.00027   0.00049   0.00083   0.00132   3.42141
    R2        2.07523  -0.00004   0.00008  -0.00025  -0.00017   2.07506
    R3        2.07523  -0.00004   0.00008  -0.00025  -0.00017   2.07506
    R4        2.87471  -0.00016   0.00003  -0.00057  -0.00054   2.87417
    R5        2.08325   0.00011   0.00004   0.00027   0.00031   2.08356
    R6        2.07788   0.00005   0.00007   0.00008   0.00015   2.07803
    R7        2.07788   0.00005   0.00007   0.00008   0.00015   2.07803
    A1        1.85190   0.00008  -0.00028   0.00052   0.00024   1.85214
    A2        1.85190   0.00008  -0.00028   0.00052   0.00024   1.85214
    A3        1.93384  -0.00002  -0.00021  -0.00008  -0.00029   1.93355
    A4        1.90740   0.00016   0.00030   0.00087   0.00118   1.90857
    A5        1.95651  -0.00014   0.00022  -0.00084  -0.00062   1.95588
    A6        1.95651  -0.00014   0.00022  -0.00084  -0.00062   1.95588
    A7        1.90784   0.00018   0.00005   0.00113   0.00118   1.90901
    A8        1.93209   0.00003   0.00001   0.00020   0.00021   1.93230
    A9        1.93209   0.00003   0.00001   0.00020   0.00021   1.93230
   A10        1.89713  -0.00010  -0.00005  -0.00058  -0.00063   1.89650
   A11        1.89713  -0.00010  -0.00005  -0.00058  -0.00063   1.89650
   A12        1.89689  -0.00005   0.00003  -0.00041  -0.00038   1.89651
    D1        3.14159   0.00000   0.00000   0.00000   0.00000   3.14159
    D2       -1.05234   0.00001  -0.00003   0.00013   0.00010  -1.05224
    D3        1.05234  -0.00001   0.00003  -0.00013  -0.00010   1.05224
    D4        1.07635   0.00000   0.00036  -0.00006   0.00030   1.07665
    D5       -3.11758   0.00001   0.00033   0.00007   0.00040  -3.11718
    D6       -1.01291  -0.00001   0.00039  -0.00018   0.00020  -1.01270
    D7       -1.07635   0.00000  -0.00036   0.00006  -0.00030  -1.07665
    D8        1.01291   0.00001  -0.00039   0.00018  -0.00020   1.01270
    D9        3.11758  -0.00001  -0.00033  -0.00007  -0.00040   3.11718
         Item               Value     Threshold  Converged?
 Maximum Force            0.000265     0.000015     NO 
 RMS     Force            0.000095     0.000010     NO 
 Maximum Displacement     0.001232     0.000060     NO 
 RMS     Displacement     0.000519     0.000040     NO 
 Predicted change in Energy=-6.409692D-07
 GradGradGradGradGradGradGradGradGradGradGradGradGradGradGradGradGradGrad

                          Input orientation:                          
 ---------------------------------------------------------------------
 Center     Atomic     Atomic              Coordinates (Angstroms)
 Number     Number      Type              X           Y           Z
 ---------------------------------------------------------------------
    1          6             0        1.818260    0.012993    0.000000
    2         17             0        0.007730    0.013766    0.000000
    3          1             0        2.122900   -0.544044    0.895923
    4          1             0        2.122900   -0.544044   -0.895923
    5          6             0        2.358572    1.434732    0.000000
    6          1             0        3.460802    1.407214    0.000000
    7          1             0        2.020199    1.979386   -0.893352
    8          1             0        2.020199    1.979386    0.893352
 ---------------------------------------------------------------------
                    Distance matrix (angstroms):
                    1          2          3          4          5
     1  C    0.000000
     2  Cl   1.810531   0.000000
     3  H    1.098077   2.363847   0.000000
     4  H    1.098077   2.363847   1.791845   0.000000
     5  C    1.520946   2.746926   2.184896   2.184896   0.000000
     6  H    2.154482   3.723628   2.529835   2.529835   1.102573
     7  H    2.169230   2.951571   3.095117   2.525520   1.099647
     8  H    2.169230   2.951571   2.525520   3.095117   1.099647
                    6          7          8
     6  H    0.000000
     7  H    1.789077   0.000000
     8  H    1.789077   1.786705   0.000000
 Stoichiometry    C2H5Cl
 Framework group  CS[SG(C2HCl),X(H4)]
 Deg. of freedom    11
 Full point group                 CS
 Largest Abelian subgroup         CS      NOp   2
 Largest concise Abelian subgroup CS      NOp   2
                         Standard orientation:                         
 ---------------------------------------------------------------------
 Center     Atomic     Atomic              Coordinates (Angstroms)
 Number     Number      Type              X           Y           Z
 ---------------------------------------------------------------------
    1          6             0        0.000000    0.822381    0.000000
    2         17             0        0.825323   -0.789098    0.000000
    3          1             0        0.356703    1.347603    0.895923
    4          1             0        0.356703    1.347603   -0.895923
    5          6             0       -1.511658    0.654552    0.000000
    6          1             0       -1.990036    1.647941    0.000000
    7          1             0       -1.841952    0.104960   -0.893352
    8          1             0       -1.841952    0.104960    0.893352
 ---------------------------------------------------------------------
 Rotational constants (GHZ):     30.9988698      5.4353183      4.9146759
 Standard basis: Aug-CC-pVDZ (5D, 7F)
 There are    76 symmetry adapted basis functions of A'  symmetry.
 There are    42 symmetry adapted basis functions of A"  symmetry.
 Integral buffers will be    131072 words long.
 Raffenetti 1 integral format.
 Two-electron integral symmetry is turned on.
   118 basis functions,   224 primitive gaussians,   124 cartesian basis functions
    17 alpha electrons       17 beta electrons
       nuclear repulsion energy       102.2174767505 Hartrees.
 NAtoms=    8 NActive=    8 NUniq=    6 SFac= 1.33D+00 NAtFMM=   80 NAOKFM=F Big=F
 One-electron integrals computed using PRISM.
 NBasis=   118 RedAO= T  NBF=    76    42
 NBsUse=   118 1.00D-06 NBFU=    76    42
 Initial guess read from the read-write file:
 Initial guess orbital symmetries:
       Occupied  (A') (A') (A') (A') (A') (A') (A") (A') (A') (A')
                 (A") (A') (A') (A") (A') (A') (A")
       Virtual   (A') (A') (A") (A') (A") (A') (A') (A') (A") (A')
                 (A') (A') (A") (A') (A") (A') (A') (A') (A") (A")
                 (A') (A') (A") (A') (A') (A') (A") (A') (A') (A")
                 (A') (A") (A') (A") (A") (A') (A") (A') (A") (A')
                 (A') (A') (A') (A") (A") (A') (A') (A") (A') (A')
                 (A') (A") (A") (A') (A') (A") (A') (A") (A') (A')
                 (A") (A') (A') (A') (A') (A") (A') (A") (A') (A")
                 (A') (A") (A') (A') (A') (A") (A") (A') (A") (A")
                 (A') (A") (A') (A') (A") (A') (A') (A") (A') (A')
                 (A") (A') (A') (A") (A') (A') (A') (A") (A') (A')
                 (A")
 Requested convergence on RMS density matrix=1.00D-08 within 128 cycles.
 Requested convergence on MAX density matrix=1.00D-06.
 Requested convergence on             energy=1.00D-06.
 No special actions if energy rises.
 Keep R1 integrals in memory in canonical form, NReq=    31904225.
 SCF Done:  E(RHF) =  -538.164696511     A.U. after    7 cycles
             Convg  =    0.7788D-08             -V/T =  2.0003
             S**2   =   0.0000
 ExpMin= 2.97D-02 ExpMax= 1.28D+05 ExpMxC= 1.24D+03 IAcc=3 IRadAn=         5 AccDes= 0.00D+00
 HarFok:  IExCor= 205 AccDes= 0.00D+00 IRadAn=         5 IDoV=1
 ScaDFX=  1.000000  1.000000  1.000000  1.000000
 Range of M.O.s used for correlation:     8   118
 NBasis=   118 NAE=    17 NBE=    17 NFC=     7 NFV=     0
 NROrb=    111 NOA=    10 NOB=    10 NVA=   101 NVB=   101

 **** Warning!!: The largest alpha MO coefficient is  0.25924744D+02

 Fully direct method using O(ONN) memory.
 JobTyp=1 Pass  1:  I=   8 to  17 NPSUse=  2 ParTrn=T ParDer=T DoDerP=T.
 Spin components of T(2) and E(2):
     alpha-alpha T2 =       0.2070028342D-01 E2=     -0.5360393339D-01
     alpha-beta  T2 =       0.1239175256D+00 E2=     -0.3449849802D+00
     beta-beta   T2 =       0.2070028342D-01 E2=     -0.5360393339D-01
 ANorm=    0.1079499001D+01
 E2 =    -0.4521928469D+00 EUMP2 =    -0.53861688935755D+03
 DoAtom=TTTTTTTT
          Differentiating once with respect to electric field.
                with respect to dipole field.
          Differentiating once with respect to nuclear coordinates.
          Store integrals in memory, NReq=    30856281.
          There are   1 degrees of freedom in the 1st order CPHF.
     1 vectors were produced by pass  0.
 AX will form   1 AO Fock derivatives at one time.
     1 vectors were produced by pass  1.
     1 vectors were produced by pass  2.
     1 vectors were produced by pass  3.
     1 vectors were produced by pass  4.
     1 vectors were produced by pass  5.
     1 vectors were produced by pass  6.
     1 vectors were produced by pass  7.
     1 vectors were produced by pass  8.
     1 vectors were produced by pass  9.
     1 vectors were produced by pass 10.
     1 vectors were produced by pass 11.
 Inv2:  IOpt= 1 Iter= 1 AM= 4.34D-16 Conv= 1.00D-12.
 Inverted reduced A of dimension   12 with in-core refinement.
 End of Minotr Frequency-dependent properties file   721 does not exist.
 ***** Axes restored to original set *****
 -------------------------------------------------------------------
 Center     Atomic                   Forces (Hartrees/Bohr)
 Number     Number              X              Y              Z
 -------------------------------------------------------------------
    1          6          -0.000013031   -0.000025498    0.000000000
    2         17           0.000031180    0.000002787    0.000000000
    3          1          -0.000004557    0.000012495    0.000012247
    4          1          -0.000004557    0.000012495   -0.000012247
    5          6          -0.000039074   -0.000077283    0.000000000
    6          1           0.000006971    0.000019907    0.000000000
    7          1           0.000011534    0.000027549   -0.000001795
    8          1           0.000011534    0.000027549    0.000001795
 -------------------------------------------------------------------
 Cartesian Forces:  Max     0.000077283 RMS     0.000022536

 GradGradGradGradGradGradGradGradGradGradGradGradGradGradGradGradGradGrad
 Berny optimization.
 Internal  Forces:  Max     0.000031179 RMS     0.000014949
 Search for a local minimum.
 Step number   5 out of a maximum of 100
 All quantities printed in internal units (Hartrees-Bohrs-Radians)
 Update second derivatives using D2CorX and points  1  2  3  4  5

 Trust test= 1.07D+00 RLast= 2.76D-03 DXMaxT set to 3.57D-01
     Eigenvalues ---    0.00398   0.04333   0.05585   0.05647   0.05753
     Eigenvalues ---    0.13012   0.15485   0.16000   0.16000   0.16900
     Eigenvalues ---    0.21731   0.24427   0.30598   0.32327   0.32385
     Eigenvalues ---    0.32564   0.33080   0.361881000.000001000.00000
     Eigenvalues --- 1000.000001000.000001000.000001000.000001000.00000
     Eigenvalues --- 1000.000001000.000001000.00000
 RFO step:  Lambda=-3.78845660D-08.
 Quartic linear search produced a step of  0.07347.
 Iteration  1 RMS(Cart)=  0.00009499 RMS(Int)=  0.00000002
 Iteration  2 RMS(Cart)=  0.00000001 RMS(Int)=  0.00000001
 Variable       Old X    -DE/DX   Delta X   Delta X   Delta X     New X
                                 (Linear)    (Quad)   (Total)
    R1        3.42141  -0.00003   0.00010  -0.00022  -0.00013   3.42128
    R2        2.07506   0.00000  -0.00001   0.00002   0.00001   2.07508
    R3        2.07506   0.00000  -0.00001   0.00002   0.00001   2.07508
    R4        2.87417  -0.00001  -0.00004   0.00001  -0.00003   2.87414
    R5        2.08356   0.00001   0.00002   0.00001   0.00004   2.08360
    R6        2.07803   0.00001   0.00001   0.00003   0.00005   2.07808
    R7        2.07803   0.00001   0.00001   0.00003   0.00005   2.07808
    A1        1.85214   0.00000   0.00002   0.00000   0.00002   1.85216
    A2        1.85214   0.00000   0.00002   0.00000   0.00002   1.85216
    A3        1.93355   0.00000  -0.00002  -0.00002  -0.00004   1.93351
    A4        1.90857   0.00002   0.00009   0.00014   0.00023   1.90880
    A5        1.95588  -0.00001  -0.00005  -0.00006  -0.00010   1.95578
    A6        1.95588  -0.00001  -0.00005  -0.00006  -0.00010   1.95578
    A7        1.90901   0.00002   0.00009   0.00005   0.00013   1.90915
    A8        1.93230   0.00003   0.00002   0.00019   0.00021   1.93251
    A9        1.93230   0.00003   0.00002   0.00019   0.00021   1.93251
   A10        1.89650  -0.00002  -0.00005  -0.00015  -0.00020   1.89630
   A11        1.89650  -0.00002  -0.00005  -0.00015  -0.00020   1.89630
   A12        1.89651  -0.00003  -0.00003  -0.00015  -0.00017   1.89634
    D1        3.14159   0.00000   0.00000   0.00000   0.00000   3.14159
    D2       -1.05224   0.00000   0.00001  -0.00004  -0.00003  -1.05227
    D3        1.05224   0.00000  -0.00001   0.00004   0.00003   1.05227
    D4        1.07665   0.00000   0.00002   0.00005   0.00007   1.07672
    D5       -3.11718   0.00000   0.00003   0.00001   0.00004  -3.11714
    D6       -1.01270   0.00001   0.00002   0.00009   0.00010  -1.01260
    D7       -1.07665   0.00000  -0.00002  -0.00005  -0.00007  -1.07672
    D8        1.01270  -0.00001  -0.00002  -0.00009  -0.00010   1.01260
    D9        3.11718   0.00000  -0.00003  -0.00001  -0.00004   3.11714
         Item               Value     Threshold  Converged?
 Maximum Force            0.000031     0.000015     NO 
 RMS     Force            0.000015     0.000010     NO 
 Maximum Displacement     0.000199     0.000060     NO 
 RMS     Displacement     0.000095     0.000040     NO 
 Predicted change in Energy=-2.219022D-08
 GradGradGradGradGradGradGradGradGradGradGradGradGradGradGradGradGradGrad

                          Input orientation:                          
 ---------------------------------------------------------------------
 Center     Atomic     Atomic              Coordinates (Angstroms)
 Number     Number      Type              X           Y           Z
 ---------------------------------------------------------------------
    1          6             0        1.818230    0.012897    0.000000
    2         17             0        0.007766    0.013717    0.000000
    3          1             0        2.122874   -0.544026    0.896000
    4          1             0        2.122874   -0.544026   -0.896000
    5          6             0        2.358515    1.434627    0.000000
    6          1             0        3.460768    1.407271    0.000000
    7          1             0        2.020266    1.979466   -0.893316
    8          1             0        2.020266    1.979466    0.893316
 ---------------------------------------------------------------------
                    Distance matrix (angstroms):
                    1          2          3          4          5
     1  C    0.000000
     2  Cl   1.810463   0.000000
     3  H    1.098083   2.363805   0.000000
     4  H    1.098083   2.363805   1.791999   0.000000
     5  C    1.520929   2.746817   2.184813   2.184813   0.000000
     6  H    2.154579   3.723602   2.529888   2.529888   1.102592
     7  H    2.169384   2.951667   3.095188   2.525578   1.099671
     8  H    2.169384   2.951667   2.525578   3.095188   1.099671
                    6          7          8
     6  H    0.000000
     7  H    1.788985   0.000000
     8  H    1.788985   1.786633   0.000000
 Stoichiometry    C2H5Cl
 Framework group  CS[SG(C2HCl),X(H4)]
 Deg. of freedom    11
 Full point group                 CS
 Largest Abelian subgroup         CS      NOp   2
 Largest concise Abelian subgroup CS      NOp   2
                         Standard orientation:                         
 ---------------------------------------------------------------------
 Center     Atomic     Atomic              Coordinates (Angstroms)
 Number     Number      Type              X           Y           Z
 ---------------------------------------------------------------------
    1          6             0        0.000000    0.822370    0.000000
    2         17             0        0.825357   -0.789016    0.000000
    3          1             0        0.356564    1.347568    0.896000
    4          1             0        0.356564    1.347568   -0.896000
    5          6             0       -1.511627    0.654420    0.000000
    6          1             0       -1.990226    1.647724    0.000000
    7          1             0       -1.842105    0.104833   -0.893316
    8          1             0       -1.842105    0.104833    0.893316
 ---------------------------------------------------------------------
 Rotational constants (GHZ):     30.9984726      5.4356185      4.9149255
 Standard basis: Aug-CC-pVDZ (5D, 7F)
 There are    76 symmetry adapted basis functions of A'  symmetry.
 There are    42 symmetry adapted basis functions of A"  symmetry.
 Integral buffers will be    131072 words long.
 Raffenetti 1 integral format.
 Two-electron integral symmetry is turned on.
   118 basis functions,   224 primitive gaussians,   124 cartesian basis functions
    17 alpha electrons       17 beta electrons
       nuclear repulsion energy       102.2190717465 Hartrees.
 NAtoms=    8 NActive=    8 NUniq=    6 SFac= 1.33D+00 NAtFMM=   80 NAOKFM=F Big=F
 One-electron integrals computed using PRISM.
 NBasis=   118 RedAO= T  NBF=    76    42
 NBsUse=   118 1.00D-06 NBFU=    76    42
 Initial guess read from the read-write file:
 Initial guess orbital symmetries:
       Occupied  (A') (A') (A') (A') (A') (A') (A") (A') (A') (A')
                 (A") (A') (A') (A") (A') (A') (A")
       Virtual   (A') (A') (A") (A') (A") (A') (A') (A') (A") (A')
                 (A') (A') (A") (A') (A") (A') (A') (A') (A") (A")
                 (A') (A') (A") (A') (A') (A') (A") (A') (A') (A")
                 (A') (A") (A') (A") (A") (A') (A") (A') (A") (A')
                 (A') (A') (A') (A") (A") (A') (A') (A") (A') (A')
                 (A') (A") (A") (A') (A') (A") (A') (A") (A') (A')
                 (A") (A') (A') (A') (A') (A") (A') (A") (A') (A")
                 (A') (A") (A') (A') (A') (A") (A") (A') (A") (A")
                 (A') (A") (A') (A') (A") (A') (A') (A") (A') (A')
                 (A") (A') (A') (A") (A') (A') (A') (A") (A') (A')
                 (A")
 Requested convergence on RMS density matrix=1.00D-08 within 128 cycles.
 Requested convergence on MAX density matrix=1.00D-06.
 Requested convergence on             energy=1.00D-06.
 No special actions if energy rises.
 Keep R1 integrals in memory in canonical form, NReq=    31904225.
 SCF Done:  E(RHF) =  -538.164695676     A.U. after    6 cycles
             Convg  =    0.6367D-08             -V/T =  2.0003
             S**2   =   0.0000
 ExpMin= 2.97D-02 ExpMax= 1.28D+05 ExpMxC= 1.24D+03 IAcc=3 IRadAn=         5 AccDes= 0.00D+00
 HarFok:  IExCor= 205 AccDes= 0.00D+00 IRadAn=         5 IDoV=1
 ScaDFX=  1.000000  1.000000  1.000000  1.000000
 Range of M.O.s used for correlation:     8   118
 NBasis=   118 NAE=    17 NBE=    17 NFC=     7 NFV=     0
 NROrb=    111 NOA=    10 NOB=    10 NVA=   101 NVB=   101

 **** Warning!!: The largest alpha MO coefficient is  0.25927464D+02

 Fully direct method using O(ONN) memory.
 JobTyp=1 Pass  1:  I=   8 to  17 NPSUse=  2 ParTrn=T ParDer=T DoDerP=T.
 Spin components of T(2) and E(2):
     alpha-alpha T2 =       0.2070024348D-01 E2=     -0.5360414071D-01
     alpha-beta  T2 =       0.1239172470D+00 E2=     -0.3449854224D+00
     beta-beta   T2 =       0.2070024348D-01 E2=     -0.5360414071D-01
 ANorm=    0.1079498835D+01
 E2 =    -0.4521937038D+00 EUMP2 =    -0.53861688937966D+03
 DoAtom=TTTTTTTT
[...]
     27 -0.510906D-02  0.586685D-02 -0.663302D-03 -0.460980D-02 -0.745172D-02
     28 -0.592599D-03 -0.775067D-04 -0.660765D-02  0.652954D-02 -0.745172D-02
               21            22            23            24            25
     21  0.169307D-01
     22  0.692871D-02  0.169307D-01
     23 -0.822435D-02 -0.766500D-02  0.155055D-01
     24  0.224973D-02 -0.719291D-02  0.507042D-02  0.147719D-01
     25 -0.775226D-02  0.280908D-02  0.562977D-02  0.532923D-02  0.158906D-01
     26 -0.766500D-02 -0.822435D-02  0.323892D-02 -0.663676D-02 -0.719611D-02
     27  0.280908D-02 -0.775226D-02 -0.719611D-02  0.306469D-02 -0.749665D-02
     28 -0.719291D-02  0.224973D-02 -0.663676D-02 -0.637796D-02  0.306469D-02
               26            27            28
     26  0.155055D-01
     27  0.562977D-02  0.158906D-01
     28  0.507042D-02  0.532923D-02  0.147719D-01
 Force constants in internal coordinates: 
                1             2             3             4             5
      1  0.213955D+00
      2  0.273612D-02  0.351469D+00
      3  0.273612D-02  0.145896D-02  0.351469D+00
      4  0.138339D-01  0.363330D-02  0.363330D-02  0.310213D+00
      5 -0.150846D-03  0.303340D-03  0.303340D-03  0.331496D-02  0.344650D+00
      6  0.567248D-03 -0.853500D-03  0.251482D-03  0.302538D-02  0.599101D-03
      7  0.567248D-03  0.251482D-03 -0.853500D-03  0.302538D-02  0.599101D-03
      8  0.122018D-01 -0.110271D-02  0.126945D-02 -0.158845D-01 -0.212054D-02
      9  0.122018D-01  0.126945D-02 -0.110271D-02 -0.158845D-01 -0.212054D-02
     10  0.126841D-01 -0.181618D-02 -0.181618D-02  0.156857D-01  0.658274D-02
     11  0.329935D-02  0.560899D-02  0.560899D-02 -0.172140D-01  0.313014D-03
     12 -0.185261D-01  0.411352D-02 -0.780463D-02  0.149106D-01 -0.136328D-02
     13 -0.185261D-01 -0.780463D-02  0.411352D-02  0.149106D-01 -0.136328D-02
     14  0.100507D-01 -0.348038D-03 -0.348038D-03  0.915144D-02  0.388904D-02
     15 -0.380908D-02  0.370204D-02 -0.160010D-02  0.187815D-01 -0.620957D-02
     16 -0.380908D-02 -0.160010D-02  0.370204D-02  0.187815D-01 -0.620957D-02
     17 -0.203540D-02 -0.131336D-02  0.306212D-03 -0.150966D-01  0.427275D-02
     18 -0.203540D-02  0.306212D-03 -0.131336D-02 -0.150966D-01  0.427275D-02
     19  0.160816D-02 -0.803463D-03 -0.803463D-03 -0.179240D-01  0.342851D-03
     20  0.000000D+00  0.114171D-02 -0.114171D-02  0.000000D+00  0.000000D+00
     21  0.151410D-02  0.159538D-02 -0.197829D-02 -0.117841D-02  0.390176D-02
     22 -0.151410D-02  0.197829D-02 -0.159538D-02  0.117841D-02 -0.390176D-02
     23 -0.117670D-01  0.106653D-02  0.353444D-02 -0.104133D-03 -0.819712D-03
     24 -0.102529D-01  0.152021D-02  0.269785D-02 -0.128254D-02  0.308204D-02
     25 -0.132811D-01  0.190312D-02  0.308076D-02  0.107428D-02 -0.472147D-02
     26  0.117670D-01 -0.353444D-02 -0.106653D-02  0.104133D-03  0.819712D-03
     27  0.132811D-01 -0.308076D-02 -0.190312D-02 -0.107428D-02  0.472147D-02
     28  0.102529D-01 -0.269785D-02 -0.152021D-02  0.128254D-02 -0.308204D-02
                6             7             8             9            10
      6  0.351016D+00
      7  0.764776D-03  0.351016D+00
      8  0.147557D-03  0.790721D-03  0.646257D-01
      9  0.790721D-03  0.147557D-03  0.172985D-01  0.646257D-01
     10 -0.315208D-02 -0.315208D-02 -0.622652D-01 -0.622652D-01  0.153289D+00
     11 -0.116636D-02 -0.116636D-02  0.106138D-01  0.106138D-01  0.125315D-01
     12  0.419481D-02 -0.953707D-03 -0.378348D-01  0.133222D-01 -0.226290D-01
     13 -0.953707D-03  0.419481D-02  0.133222D-01 -0.378348D-01 -0.226290D-01
     14 -0.562865D-02 -0.562865D-02 -0.507800D-02 -0.507800D-02  0.200647D-01
     15  0.248258D-02 -0.619473D-02 -0.282576D-02  0.465756D-02 -0.886459D-02
     16 -0.619473D-02  0.248258D-02  0.465756D-02 -0.282576D-02 -0.886459D-02
     17  0.438079D-02  0.194963D-03  0.266225D-02  0.813125D-03 -0.397807D-02
     18  0.194963D-03  0.438079D-02  0.813125D-03  0.266225D-02 -0.397807D-02
     19  0.498630D-02  0.498630D-02 -0.147883D-03 -0.147883D-03  0.561563D-02
     20 -0.262508D-02  0.262508D-02  0.972903D-02 -0.972903D-02  0.000000D+00
     21  0.751246D-03 -0.456309D-02  0.803424D-02 -0.906281D-02  0.234539D-02
     22  0.456309D-02 -0.751246D-03  0.906281D-02 -0.803424D-02 -0.234539D-02
     23 -0.343956D-02  0.434363D-02 -0.570163D-02  0.122202D-02 -0.878190D-02
     24 -0.632373D-04 -0.284454D-02 -0.739642D-02  0.188824D-02 -0.643651D-02
     25  0.374861D-02  0.967309D-03 -0.636785D-02  0.291682D-02 -0.111273D-01
     26 -0.434363D-02  0.343956D-02 -0.122202D-02  0.570163D-02  0.878190D-02
     27 -0.967309D-03 -0.374861D-02 -0.291682D-02  0.636785D-02  0.111273D-01
     28  0.284454D-02  0.632373D-04 -0.188824D-02  0.739642D-02  0.643651D-02
               11            12            13            14            15
     11  0.542326D-01
     12 -0.409264D-01  0.101130D+00
     13 -0.409264D-01 -0.192368D-01  0.101130D+00
     14  0.415665D-02 -0.690302D-02 -0.690302D-02  0.100926D+00
     15 -0.397453D-02  0.175910D-01 -0.709946D-02 -0.189372D-01  0.106044D+00
     16 -0.397453D-02 -0.709946D-02  0.175910D-01 -0.189372D-01 -0.220384D-01
     17  0.412754D-03 -0.360339D-02  0.386645D-02 -0.389679D-01 -0.395012D-01
     18  0.412754D-03  0.386645D-02 -0.360339D-02 -0.389679D-01  0.131492D-01
     19  0.309681D-02 -0.398327D-02 -0.398327D-02  0.131460D-01 -0.406848D-01
     20  0.000000D+00  0.255158D-02 -0.255158D-02  0.000000D+00 -0.239903D-02
     21  0.687367D-03  0.462760D-02 -0.657298D-02  0.428728D-02  0.256424D-02
     22 -0.687367D-03  0.657298D-02 -0.462760D-02 -0.428728D-02  0.708071D-02
     23  0.487892D-02 -0.427964D-03  0.820307D-02 -0.245932D-02 -0.437067D-02
     24  0.556629D-02  0.164806D-02  0.418168D-02  0.182796D-02  0.592599D-03
     25  0.419155D-02  0.359343D-02  0.612705D-02 -0.674660D-02  0.510906D-02
     26 -0.487892D-02 -0.820307D-02  0.427964D-03  0.245932D-02 -0.703547D-02
     27 -0.419155D-02 -0.612705D-02 -0.359343D-02  0.674660D-02 -0.207220D-02
     28 -0.556629D-02 -0.418168D-02 -0.164806D-02 -0.182796D-02  0.244427D-02
               16            17            18            19            20
     16  0.106044D+00
     17  0.131492D-01  0.492672D-01
     18 -0.395012D-01  0.888958D-02  0.492672D-01
     19 -0.406848D-01  0.916381D-02  0.916381D-02  0.517395D-01
     20  0.239903D-02 -0.660962D-02  0.660962D-02  0.000000D+00  0.161190D-01
     21 -0.708071D-02  0.497642D-02  0.967928D-03 -0.556967D-02  0.645662D-02
     22 -0.256424D-02 -0.967928D-03 -0.497642D-02  0.556967D-02  0.645662D-02
     23  0.703547D-02 -0.497839D-02  0.571920D-02 -0.959871D-03  0.221068D-02
     24 -0.244427D-02  0.660765D-02  0.775067D-04 -0.652954D-02 -0.745172D-02
     25  0.207220D-02  0.663302D-03 -0.586685D-02  0.460980D-02 -0.745172D-02
     26  0.437067D-02 -0.571920D-02  0.497839D-02  0.959871D-03  0.221068D-02
     27 -0.510906D-02  0.586685D-02 -0.663302D-03 -0.460980D-02 -0.745172D-02
     28 -0.592599D-03 -0.775067D-04 -0.660765D-02  0.652954D-02 -0.745172D-02
               21            22            23            24            25
     21  0.169307D-01
     22  0.692871D-02  0.169307D-01
     23 -0.822435D-02 -0.766500D-02  0.155055D-01
     24  0.224973D-02 -0.719291D-02  0.507042D-02  0.147719D-01
     25 -0.775226D-02  0.280908D-02  0.562977D-02  0.532923D-02  0.158906D-01
     26 -0.766500D-02 -0.822435D-02  0.323892D-02 -0.663676D-02 -0.719611D-02
     27  0.280908D-02 -0.775226D-02 -0.719611D-02  0.306469D-02 -0.749665D-02
     28 -0.719291D-02  0.224973D-02 -0.663676D-02 -0.637796D-02  0.306469D-02
               26            27            28
     26  0.155055D-01
     27  0.562977D-02  0.158906D-01
     28  0.507042D-02  0.532923D-02  0.147719D-01
 Final forces over variables, Energy=-5.38616889D+02:
 -3.11052729D-06-4.95710955D-06-4.95711038D-06-4.11399247D-06
 -8.76691876D-07-1.17831194D-06-1.17831218D-06-1.51731791D-06
 -1.51731662D-06 2.78501732D-06-1.03615955D-06 5.28758647D-07
  5.28758120D-07-7.75374292D-08 3.55740588D-06 3.55740709D-06
 -2.06157440D-06-2.06157488D-06-3.13121638D-06-4.50602995D-13
 -3.89138432D-07 3.89137374D-07-2.83674740D-07-6.72812722D-07
  1.05463085D-07 2.83675123D-07-1.05462858D-07 6.72812948D-07

 GradGradGradGradGradGradGradGradGradGradGradGradGradGradGradGradGradGrad
 Berny optimization.
 Internal  Forces:  Max     0.000004957 RMS     0.000002222
 Search for a local minimum.
 Step number   1 out of a maximum of   2
 All quantities printed in internal units (Hartrees-Bohrs-Radians)
 Second derivative matrix not updated -- analytic derivatives used.
     Eigenvalues ---    0.00307   0.04343   0.04450   0.04471   0.06217
     Eigenvalues ---    0.12135   0.12383   0.12393   0.13769   0.17575
     Eigenvalues ---    0.21374   0.24017   0.32788   0.34640   0.35073
     Eigenvalues ---    0.35157   0.35308   0.354431000.000001000.00000
     Eigenvalues --- 1000.000001000.000001000.000001000.000001000.00000
     Eigenvalues --- 1000.000001000.000001000.00000
 Angle between quadratic step and forces=  31.57 degrees.
 Linear search not attempted -- first point.
 Iteration  1 RMS(Cart)=  0.00001910 RMS(Int)=  0.00000000
 Iteration  2 RMS(Cart)=  0.00000000 RMS(Int)=  0.00000000
 Variable       Old X    -DE/DX   Delta X   Delta X   Delta X     New X
                                 (Linear)    (Quad)   (Total)
    R1        3.42128   0.00000   0.00000  -0.00001  -0.00001   3.42127
    R2        2.07508   0.00000   0.00000  -0.00001  -0.00001   2.07506
    R3        2.07508   0.00000   0.00000  -0.00001  -0.00001   2.07506
    R4        2.87414   0.00000   0.00000  -0.00002  -0.00002   2.87412
    R5        2.08360   0.00000   0.00000   0.00000   0.00000   2.08360
    R6        2.07808   0.00000   0.00000   0.00000   0.00000   2.07807
    R7        2.07808   0.00000   0.00000   0.00000   0.00000   2.07807
    A1        1.85216   0.00000   0.00000   0.00000   0.00000   1.85215
    A2        1.85216   0.00000   0.00000   0.00000   0.00000   1.85215
    A3        1.93351   0.00000   0.00000   0.00002   0.00002   1.93353
    A4        1.90880   0.00000   0.00000  -0.00001  -0.00001   1.90879
    A5        1.95578   0.00000   0.00000   0.00000   0.00000   1.95578
    A6        1.95578   0.00000   0.00000   0.00000   0.00000   1.95578
    A7        1.90915   0.00000   0.00000   0.00000   0.00000   1.90914
    A8        1.93251   0.00000   0.00000   0.00003   0.00003   1.93254
    A9        1.93251   0.00000   0.00000   0.00003   0.00003   1.93254
   A10        1.89630   0.00000   0.00000  -0.00002  -0.00002   1.89628
   A11        1.89630   0.00000   0.00000  -0.00002  -0.00002   1.89628
   A12        1.89634   0.00000   0.00000  -0.00002  -0.00002   1.89632
    D1        3.14159   0.00000   0.00000   0.00000   0.00000   3.14159
    D2       -1.05227   0.00000   0.00000  -0.00001  -0.00001  -1.05228
    D3        1.05227   0.00000   0.00000   0.00001   0.00001   1.05228
    D4        1.07672   0.00000   0.00000  -0.00001  -0.00001   1.07672
    D5       -3.11714   0.00000   0.00000  -0.00002  -0.00002  -3.11716
    D6       -1.01260   0.00000   0.00000   0.00000   0.00000  -1.01260
    D7       -1.07672   0.00000   0.00000   0.00001   0.00001  -1.07672
    D8        1.01260   0.00000   0.00000   0.00000   0.00000   1.01260
    D9        3.11714   0.00000   0.00000   0.00002   0.00002   3.11716
         Item               Value     Threshold  Converged?
 Maximum Force            0.000005     0.000450     YES
 RMS     Force            0.000002     0.000300     YES
 Maximum Displacement     0.000057     0.001800     YES
 RMS     Displacement     0.000019     0.001200     YES
 Predicted change in Energy=-3.807965D-10
 Optimization completed.
    -- Stationary point found.
                           ----------------------------
                           !   Optimized Parameters   !
                           ! (Angstroms and Degrees)  !
 --------------------------                            --------------------------
 ! Name  Definition              Value          Derivative Info.                !
 --------------------------------------------------------------------------------
 ! R1    R(1,2)                  1.8105         -DE/DX =    0.0                 !
 ! R2    R(1,3)                  1.0981         -DE/DX =    0.0                 !
 ! R3    R(1,4)                  1.0981         -DE/DX =    0.0                 !
 ! R4    R(1,5)                  1.5209         -DE/DX =    0.0                 !
 ! R5    R(5,6)                  1.1026         -DE/DX =    0.0                 !
 ! R6    R(5,7)                  1.0997         -DE/DX =    0.0                 !
 ! R7    R(5,8)                  1.0997         -DE/DX =    0.0                 !
 ! A1    A(2,1,3)              106.1208         -DE/DX =    0.0                 !
 ! A2    A(2,1,4)              106.1208         -DE/DX =    0.0                 !
 ! A3    A(2,1,5)              110.7818         -DE/DX =    0.0                 !
 ! A4    A(3,1,4)              109.3662         -DE/DX =    0.0                 !
 ! A5    A(3,1,5)              112.058          -DE/DX =    0.0                 !
 ! A6    A(4,1,5)              112.058          -DE/DX =    0.0                 !
 ! A7    A(1,5,6)              109.3861         -DE/DX =    0.0                 !
 ! A8    A(1,5,7)              110.7245         -DE/DX =    0.0                 !
 ! A9    A(1,5,8)              110.7245         -DE/DX =    0.0                 !
 ! A10   A(6,5,7)              108.6502         -DE/DX =    0.0                 !
 ! A11   A(6,5,8)              108.6502         -DE/DX =    0.0                 !
 ! A12   A(7,5,8)              108.6521         -DE/DX =    0.0                 !
 ! D1    D(2,1,5,6)            180.0            -DE/DX =    0.0                 !
 ! D2    D(2,1,5,7)            -60.2906         -DE/DX =    0.0                 !
 ! D3    D(2,1,5,8)             60.2906         -DE/DX =    0.0                 !
 ! D4    D(3,1,5,6)             61.6917         -DE/DX =    0.0                 !
 ! D5    D(3,1,5,7)           -178.5989         -DE/DX =    0.0                 !
 ! D6    D(3,1,5,8)            -58.0177         -DE/DX =    0.0                 !
 ! D7    D(4,1,5,6)            -61.6917         -DE/DX =    0.0                 !
 ! D8    D(4,1,5,7)             58.0177         -DE/DX =    0.0                 !
 ! D9    D(4,1,5,8)            178.5989         -DE/DX =    0.0                 !
 --------------------------------------------------------------------------------
 GradGradGradGradGradGradGradGradGradGradGradGradGradGradGradGradGradGrad


 Test job not archived.
 1\1\GINC-N081\Freq\RMP2-FC\Aug-CC-pVDZ\C2H5Cl1\FYLIN\28-Mar-2016\0\\#M
 P2/aug-cc-pVDZ NOSYMM SCF=TIGHT GEOM=ALLCHECK FREQ IOP(7/33=1)\\CLET O
 PTIMIZED AT MP2/aug-cc-pVDZ\\0,1\C,1.8182295448,0.0128967987,0.\Cl,0.0
 077662677,0.0137171667,0.\H,2.1228742257,-0.5440261755,0.8959996158\H,
 2.1228742257,-0.5440261755,-0.8959996158\C,2.3585153625,1.4346265223,0
 .\H,3.4607678651,1.4072707122,0.\H,2.0202662543,1.9794655755,-0.893316
 3591\H,2.0202662543,1.9794655755,0.8933163591\\Version=AM64L-G03RevD.0
 2\HF=-538.1646957\MP2=-538.6168894\RMSD=3.307e-09\RMSF=2.783e-06\ZeroP
 oint=0.0669669\Thermal=0.0709764\Dipole=0.8481996,0.0773589,0.\DipoleD
 eriv=0.8000598,0.1364152,0.,0.0777591,0.1928785,0.,0.,0.,0.1420401,-0.
 5870061,-0.1068565,0.,-0.0358903,-0.2157474,0.,0.,0.,-0.1881296,-0.073
 4797,0.0033653,-0.0327992,0.0129205,-0.0043233,0.0511383,-0.0499412,0.
 0700148,-0.0132949,-0.0734797,0.0033653,0.0327992,0.0129205,-0.0043233
 ,-0.0511383,0.0499412,-0.0700148,-0.0132949,-0.0308336,-0.0758767,0.,-
 0.0156286,0.0061056,0.,0.,0.,0.0814819,-0.1426297,-0.0272812,0.,-0.031
 2563,0.023739,0.,0.,0.,0.0823186,0.0536845,0.0334343,-0.0577929,-0.010
 4124,0.0008355,0.0372154,-0.0326013,0.0710848,-0.0455606,0.0536845,0.0
 334343,0.0577929,-0.0104124,0.0008355,-0.0372154,0.0326013,-0.0710848,
 -0.0455606\Polar=49.1226893,3.2687311,39.432425,0.,0.,35.7660494\PG=CS
  [SG(C2H1Cl1),X(H4)]\NImag=0\\0.33915553,-0.03226254,0.52003665,0.,0.,
 0.60689989,-0.13490262,0.00821839,0.,0.21395513,0.00751856,-0.03272827
 ,0.,-0.00014115,0.02822694,0.,0.,-0.03539082,0.,0.,0.02292648,-0.05843
 417,0.04013289,-0.06263268,-0.02531252,0.01143209,-0.01942998,0.074339
 44,0.03858474,-0.11938666,0.11516054,-0.00203824,0.00157493,-0.0012353
 6,-0.03795195,0.12748829,-0.06302382,0.11638805,-0.24470261,0.00398657
 ,-0.00222442,0.00475353,0.06515385,-0.12509536,0.25418317,-0.05843417,
 0.04013289,0.06263268,-0.02531252,0.01143209,0.01942998,0.00437609,-0.
 00471954,-0.00710148,0.07433944,0.03858474,-0.11938666,-0.11516054,-0.
 00203824,0.00157493,0.00123536,-0.00471954,0.00839945,0.01395748,-0.03
 795195,0.12748829,0.06302382,-0.11638805,-0.24470261,-0.00398657,0.002
 22442,0.00475353,0.00710148,-0.01395748,-0.01862557,-0.06515385,0.1250
 9536,0.25418317,-0.07880416,-0.04286093,0.,-0.03186892,-0.02813445,0.,
 0.00489118,0.00821879,0.00037069,0.00489118,0.00821879,-0.00037069,0.5
 6338124,-0.04560174,-0.21657997,0.,0.00006656,0.00230236,0.,-0.0071027
 7,-0.01466796,-0.00276255,-0.00710277,-0.01466796,0.00276255,-0.038324
 17,0.51129858,0.,0.,-0.08196054,0.,0.,0.00130595,0.01082519,0.02583150
 ,0.00229266,-0.01082519,-0.02583150,0.00229266,0.,0.,0.58923235,-0.011
 78185,0.00305497,0.,0.00000495,-0.00268686,0.,0.00043893,-0.00004298,0
 .00019818,0.00043893,-0.00004298,-0.00019818,-0.31743934,0.00869712,0.
 ,0.34445618,-0.02851400,0.00229311,0.,-0.00583325,-0.00433802,0.,0.000
 70534,0.00098795,0.00046520,0.00070534,0.00098795,-0.00046520,0.009449
 15,-0.04703735,0.,-0.00758098,0.04901918,0.,0.,-0.00196210,0.,0.,0.001
 26655,-0.00009141,-0.00014207,-0.00004703,0.00009141,0.00014207,-0.000
 04703,0.,0.,-0.04522776,0.,0.,0.04433360,0.00160071,-0.00820783,0.0111
 4922,0.00171824,0.00028986,0.00051910,-0.00015846,-0.00285043,0.000203
 17,-0.00014048,0.00079961,-0.00021285,-0.07252558,0.04468388,-0.072290
 48,-0.00805890,0.01553420,-0.02606331,0.07531996,0.01084512,-0.0171241
 0,0.02771676,0.00088297,0.00169356,-0.00073692,-0.00290520,-0.00564698
 ,-0.00082460,0.00040914,0.00125097,-0.00009621,0.04171641,-0.11032386,
 0.10881322,-0.00069915,-0.00095641,-0.00063568,-0.04451795,0.12347074,
 -0.00016333,-0.00206802,0.00090939,0.00058561,-0.00038948,0.00019239,-
 0.00041241,-0.00046589,0.00144625,0.00051403,0.00009589,0.00069960,-0.
 07096869,0.11164437,-0.23396766,0.00200480,-0.00173155,0.00084188,0.07
 756757,-0.12066094,0.24869951,0.00160071,-0.00820783,-0.01114922,0.001
 71824,0.00028986,-0.00051910,-0.00014048,0.00079961,0.00021285,-0.0001
 5846,-0.00285043,-0.00020317,-0.07252558,0.04468388,0.07229048,-0.0080
 5890,0.01553420,0.02606331,0.00224451,-0.00573135,-0.00912758,0.075319
 96,0.01084512,-0.01712410,-0.02771676,0.00088297,0.00169356,0.00073692
 ,0.00040914,0.00125097,0.00009621,-0.00290520,-0.00564698,0.00082460,0
 .04171641,-0.11032386,-0.10881322,-0.00069915,-0.00095641,0.00063568,-
 0.00573135,0.00763608,0.01357562,-0.04451795,0.12347074,0.00016333,0.0
 0206802,0.00090939,-0.00058561,0.00038948,0.00019239,-0.00051403,-0.00
 009589,0.00069960,0.00041241,0.00046589,0.00144625,0.07096869,-0.11164
 437,-0.23396766,-0.00200480,0.00173155,0.00084188,0.00912758,-0.013575
 62,-0.01882135,-0.07756757,0.12066094,0.24869951\\-0.00000212,-0.00000
 153,0.,-0.00000311,0.00000128,0.,0.00000164,-0.00000171,0.00000446,0.0
 0000164,-0.00000171,-0.00000446,0.00000509,0.00000827,0.,0.00000085,-0
 .00000100,0.,-0.00000200,-0.00000180,-0.00000179,-0.00000200,-0.000001
 80,0.00000179\\\@


 WHERE THERE IS MUCH DESIRE TO LEARN, THERE OF NECESSITY WILL BE
 MUCH ARGUING, MUCH WRITING, MANY OPINIONS; FOR OPINION IN GOOD MEN
 IS BUT KNOWLEDGE IN THE MAKING. -- JOHN MILTON.
 Job cpu time:  0 days  0 hours 13 minutes 55.9 seconds.
 File lengths (MBytes):  RWF=   1216 Int=      0 D2E=      0 Chk=      7 Scr=      1
 Normal termination of Gaussian 03 at Mon Mar 28 14:13:06 2016.
